 +---------------------------------------------------------------+
 |                                                               |
 |        ####### #     # ####### ####### ####### ######         |
 |        #     # ##    # #          #    #       #     #        |
 |        #     # # #   # #          #    #       #     #        |
 |        #     # #  #  # #####      #    #####   ######         |
 |        #     # #   # # #          #    #       #              |
 |        #     # #    ## #          #    #       #              |
 |        ####### #     # #######    #    ####### #              |
 |                                                               |
 |        Linear-Scaling Ab Initio Total Energy Program          |
 |                                                               |
 |          Release for academic collaborators of ODG            |
 |                                              Version 3.0 RC5  |
 |                                                               |
 +---------------------------------------------------------------+
 |                                                               |
 |  Authors:                                                     |
 |  Peter D. Haynes, Nicholas D. M. Hine, Arash. A. Mostofi,     |
 |  Mike C. Payne and Chris-Kriton Skylaris                      |
 |                                                               |
 |  Contributors:                                                |
 |  P. W. Avraam, S. J. Clark, O. Dieguez, S. M. M. Dubois,      |
 |  J. Dziedzic, H. H. Helal, Q. O. Hill, D. D. O`Regan,         |
 |  C. J. Pickard, M. I. J. Probert, L. Ratcliff, M. Robinson    |
 |  and A. Ruiz Serrano                                          |
 |                                                               |
 |                                   Copyright (c) 2004-2011     |
 |                                                               |
 |  Please cite:                                                 |
 |  "Introducing ONETEP: Linear-scaling density functional       |
 |   simulations on parallel computers".                         |
 |   C.-K. Skylaris, P. D. Haynes, A. A. Mostofi, M. C. Payne.   |
 |   J. Chem. Phys. 122 084119 (2005).                           |
 |                                                               |
 |          in all publications arising from your use of ONETEP. |
 |                                                               |
 +---------------------------------------------------------------+
 |                                                               |
 |   ONETEP is based on developments described in the following  |
 |   publications:                                               |
 |                                                               |
 |  "Nonorthogonal generalized Wannier function pseudopotential  |
 |   plane-wave method".                                         |
 |   C.-K. Skylaris, A. A. Mostofi, P. D. Haynes, O. Dieguez,    |
 |   M. C. Payne.                                                |
 |   Phys. Rev. B 66 035119 (2002).                              |
 |                                                               |
 |  "Preconditioned iterative minimization for linear-scaling    |
 |   electronic structure calculations".                         |
 |   A. A. Mostofi, P. D. Haynes, C.-K. Skylaris, M. C. Payne.   |
 |   J. Chem. Phys. 119(17), pp.8842-8848 (2003).                |
 |                                                               |
 |  "Total-energy calculations on a real space grid with         |
 |   localized functions and a plane-wave basis".                |
 |   A. A. Mostofi, C.-K. Skylaris, P. D. Haynes, M. C. Payne.   |
 |   Comput. Phys. Commun. 147, pp.788-802 (2002).               |
 |                                                               |
 |  "Accurate kinetic energy evaluation in electronic structure  |
 |   calculations with localized functions on real space grids"  |
 |   C.-K. Skylaris, A. A. Mostofi, P. D. Haynes, C. J. Pickard, |
 |   M. C. Payne.                                                |
 |   Comput. Phys. Commun. 140, pp.315-322 (2001).               |
 |                                                               |
 +---------------------------------------------------------------+

Job started: 18-07-2011 11:30 (+0100)

Running on     4 processors.

Reading parameters from file "GaAs_dimer.dat" ...... done
Reading geometry and species blocks from file "GaAs_dimer.dat" ...
  <species_atomic_set> block not found: NGWF initialisation set to AUTO
... done
-------------------------------------------------------------------------------
---------------------------- RUN-TIME PARAMETERS ------------------------------
-------------------------------------------------------------------------------
task                        : SINGLEPOINT *! Type of calculation (String)       
cutoffenergy                : 14.699597689812883  hartree *! Plane wave kinetic 
kernelcutoff                : 1000. *! Density kernel radius in Bohr (Double Pr 
xcfunctional                : LDA *! Exchange-correlation functional (String)   
libxcxfuncid                : 0 *! Functional identifier for which exchange fun 
libxccfuncid                : 0 *! Functional identifier for which correlation  
charge                      : 0.E+0 *! The total charge of the system (Double P 
spin                        : 0 *! Total spin of system (Integer)               
spinpolarized               : F *! Switch for spin polarization (Boolean)       
spinpolarised               : F *! Switch for spin polarisation (Boolean)       
constantefield              : 0.0 0.0 0.0 *! Cartesian coordinates of constant  
fftboxpref                  : 0 0 0 *! Preferred FFT box dimensions (String)    
ppdnpoints                  : 0 0 0 *! PPD edge length in grid points for each  
psincspacing                : 0.6100000000000001 0.6100000000000001 0.610000000 
oldinput                    : F *! Read old-format input file (Boolean)         
develcode                   : *! For development code only (String)             
nnho                        : F *! Initialise NGWFs to nonorthogonal natural hy 
ngwfhalo                    : -1. *! Halo extension to NGWF radii (Double Preci 
nonscforces                 : F *! Include non self-consistent forces due to NG 
maxitpalsermano             : 50 *! Maximum number of iterations for Palser-Man 
maxitpen                    : 3 *! Max number of penalty functional iterations  
penparam                    : 4. *! Penalty functional parameter (Double Precis 
minitlnv                    : 3 *! Min number of LNV iterations (Integer)       
maxitlnv                    : 8 *! Max number of LNV iterations (Integer)       
maxitlnvcoarse              : 0 *! Max number of low-accuracy LNV iterations (I 
lnvthresholdorig            : 1.00000000000000006E-9 *! LNV convergence thresho 
lnvcgtype                   : LNV_FLETCHER *! Type of CG coefficient for LNV de 
lnvcgmaxstep                : 3. *! Maximum length of trial step for kernel opt 
exactlnv                    : T *! Use original LNV algorithm (Boolean)         
oldlnv                      : F *! Use LNV algorithm backwards compatible pre D 
lnvchecktrialsteps          : F *! Check stability of kernel at each trial step 
kerfix                      : 1 *! Density kernel fixing approach (Integer)     
maxitkernelfix              : 3 *! Maximum # iterations of Penalty Functional i 
initialdensrealspace        : F *! Construct initial density in real space from 
kerneldiis                  : F *! Use kernel DIIS in the inner loop (Boolean)  
kerneldiistype              : P *! Density mixing method (String)               
kerneldiismax               : 10 *! Max number of kernels saved during kernel D 
kerneldiismaxit             : 25 *! Max number of kernel DIIS iterations (Integ 
kerneldiisthres             : 1.00000000000000006E-9 *! Density mixing converge 
kerneldiisliter             : 5 *! Number of linear mixing iterations (Integer) 
kerneldiiscin               : 0.90000000000000002 *! Coefficient for the input  
kerneldiiscriteria          : 1000 *! Density mixing convergence criteria (Stri 
maxitngwfcg                 : 60 *! Max number of NGWF conjugate gradients (CG) 
ngwfcgtype                  : NGWF_FLETCHER *! Type of CG coefficient for NGWF  
ngwfcgmaxstep               : -8. *! Maximum length of trial step for NGWF opti 
eleccgmax                   : 5 *! Number of NGWF iterations to reset CG (Integ 
precondscheme               : TETER *! Recip-space preconditioning scheme (Stri 
kzero                       : 3. *! KE preconditioning parameter (Double Precis 
rprecond                    : 2. *! Radial cut-off for real-space preconditione 
precondrecip                : T *! Recip-space KE preconditioning (Boolean)     
precondreal                 : F *! Real-space KE preconditioning (Boolean)      
smoothscheme                : NONE *! Smoothing scheme for the NGWF gradients a 
rsmooth                     : 1.5  bohr *! Radius of the unshaved NGWF gradient 
ksmooth                     : 5. *! Characteristic wavelength of the smoothing  
occmix                      : 0.25 *! Mix fraction of occupancy preconditioned  
kernelupdate                : F *! Update density kernel during NGWF line searc 
kernelchristoffelupdate     : F *! Update density kernel during NGWF line searc 
maxithotelling              : 50 *! Number of Hotelling iteration per NGWF chan 
maxresidhotelling           : 9.9999999999999998E-13 *! Max allowed value in Ho 
maxitngwfdiis               : 0 *! Max number of NGWF DIIS steps (Integer)      
ngwfdiissize                : 4 *! Max size of the DIIS iterative subspace (Int 
ngwfdiisreset               : 8 *! Max number of iteration for the resetting of 
ngwfdiismaxstep             : 2. *! Max length of trial step for NGWF DIIS opti 
ngwfthresholdorig           : 1.99999999999999991E-6 *! NGWF convergence thresh 
elecenergytol               : -1.00000000000000002E-3  hartree *! Tolerance on  
elecforcetol                : -1.00000000000000002E-3  ha/bohr *! Tolerance on  
ngwfmaxgrad                 : -2.00000000000000016E-5 *! Maximum permissible va 
deltaeconv                  : T *! Use consecutive energy gains as a criterion  
locpotintbatchsize          : 10 *! Size of NGWF in fftbox batch for locpot int 
kineticintbatchsize         : 10 *! Size of NGWF in fftbox batch for kinetic in 
densitybatchsize            : 10 *! Size of NGWF in fftbox batch for charge den 
ngwfgradbatchsize           : 10 *! Size of NGWF in fftbox batch for NGWF gradi 
densethreshold              : 0.40000000000000002 *! Threshold for matrix segme 
commsgroupsize              : 4 *! Number of nodes in a group (determines comms 
ovlpfornonlocal             : F *! Overlap sparsity for nonlocal (Boolean)      
usespacefillingcurve        : T *! Re-arrange atoms according to space-filling  
corehamdenskernguess        : T *! Initial guess for density kernel from core H 
checkatoms                  : T *! Check atoms on top of each other (Boolean)   
locpotscheme                : FULL *! Scheme for evaluating local potential mat 
smoothprojectors            : -0.40000000000000002 *! Halfwidth of Gaussian fil 
smoothlocpspot              : -0.40000000000000002 *! Halfwidth of Gaussian fil 
oddpsincgrid                : F *! Force odd number of points in simcell psinc  
evenpsincgrid               : F *! Force even number of points in simcell psinc 
realspaceprojectors         : F *! Whether to evaluate and store projectors in  
outputdetail                : NORMAL *! Level of output detail (String)         
pawoutputdetail             : DEFAULT *! Level of output detail for PAW: BRIEF, 
timingslevel                : 0 *! Level of timings output: 0(none) 1(nodes sum 
writeparams                 : T *! Output runtime parameters at startup (Boolea 
writeforces                 : T *! Write ionic forces (Boolean)                 
writepositions              : T *! Write ionic positions each geometry or MD st 
writexyz                    : F *! Output coordinates in .xyz file (Boolean)    
printqc                     : T *! Print Quality Control information (Boolean)  
cubeformat                  : T *! Allow .cube format for plot outputs (Boolean 
dxformat                    : F *! Allow .dx format for plot outputs (Boolean)  
dxformatcoarse              : F *! Output only points on the coarse grid (Boole 
dxformatdigits              : 7 *! Number of significant digits in .dx output ( 
grdformat                   : F *! Allow .grd format for plot outputs (Boolean) 
writedensityplot            : T *! Write the charge density in plotting format  
writengwfplot               : F *! Write NGWFs in plotting format (Boolean)     
writengwfgradplot           : F *! Write NGWF Gradients in plotting format (Boo 
writengwfradial             : 0 *! Write NGWFs radial distributions (Integer)   
writengwfgradradial         : 0 *! Write NGWFs gradients radial distributions ( 
writeradialstep             : 5.0000000000000001E-3  bohr *! Define the grid st 
writeradialsmear            : 1.00000000000000002E-2  bohr *! Define the gaussi 
readdenskern                : F *! Read density kernel restart information (Boo 
writedenskern               : F *! Write density kernel restart information (Bo 
readtightboxngwfs           : F *! Read in universal tightbox NGWFs restart inf 
writetightboxngwfs          : F *! Write in universal tightbox NGWFs restart in 
writeconvergeddkngwfs       : F *! Only write Density Kernel and NGWFs upon con 
readswngwfs                 : F *! Read NGWFs restart information in spherical  
writeswngwfs                : F *! Write NGWFs restart information in spherical 
writemaxl                   : 3 *! Maximum angular momentum number when writing 
readmaxl                    : 3 *! Maximum angular momentum number when reading 
extransw                    : 0 *! Maximum number of zeros of the sph Bessel fu 
paw                         : F *! Uses a PAW construction to find correct core 
finegridscale               : 2. *! Ratio of size of fine grid to standard grid 
dblgridscale                : 2. *! Ratio of charge density / potential working 
augfuncsrecip               : T *! Construct Augmentation functions in recip sp 
dispersion                  : 0 *! Select dispersion correction (Integer)       
vdwdcoeff                   : -1. *! Replacement VDW damping coefficient (Doubl 
hubbardmaxiter              : 0 *! Maximum number of DFT+U projector optimisati 
hubbardenergytol            : 1.00000000000000002E-8  hartree *! Energy toleran 
hubbardconvwin              : 2 *! Energy convergence window when using DFT+U p 
hubbardprojmixing           : 0.E+0 *! Proportion of old Hubbard projector to m 
hubbardfunctional           : 1 *! DFT+U energy functional to use (Integer)     
hubbardtensorcorr           : 1 *! DFT+U projector tensorial correction to use  
hubbardngwfspinthreshold    : 2.00000000000000016E-5 *! NGWF RMS  gradient thre 
coulombcutoffradius         : 50.  bohr *! Radius of sphere or cylinder for cut 
coulombcutofflength         : 0.E+0  bohr *! Length of cylinder or width of sla 
coulombcutofftype           : SPHERE *! Type of cutoff coulomb interaction: NON 
coulombcutoffwriteint       : T *! Write real-space cutoff Coulomb interaction  
pbccorrectioncutoff         : 0.E+0 *! alpha*L cutoff parameter for Martyna-Tuc 
doproperties                : T *! Allow calculation of properties (Boolean)    
numeigenvalues              : 10 *! Number of energy and occupancy eigenvalues  
homodensplot                : -1 *! Number of squared MOs to plot from HOMO and 
lumodensplot                : -1 *! Number of squared MOs to plot from LUMO and 
homoplot                    : -1 *! Number of MOs to plot from HOMO and lower ( 
lumoplot                    : -1 *! Number of MOs to plot from LUMO and higher  
dossmear                    : -3.67489942245322054E-3  hartree *! Half width of 
ldossmear                   : 3.67493243875528829E-3  hartree *! Lorentzian bro 
popncalculate               : T *! Allow population analysis (Boolean)          
popnbondcutoff              : 5.6691784037506459  bohr *! Bond length cutoff fo 
ngwfanalysis                : F *! Perform NGWF analysis (Boolean)              
polarisationcalculate       : T *! Allow calculation of polarisation (Boolean)  
spreadcalculate             : F *! Calculate spread of NGWFs (Boolean)          
geommodulusest              : 1.70000000000000012E-2  ha/bohr**3 *! The estimat 
geomfrequencyest            : 7.59999999999999998E-3  hartree *! The estimated  
geomenergytol               : 9.99999999999999955E-7  hartree *! Geometry optim 
geomforcetol                : 2.00000000000000004E-3  ha/bohr *! Geometry optim 
geomdisptol                 : 5.0000000000000001E-3  bohr *! Geometry optimizat 
geommaxiter                 : 50 *! Maximum number of geometry optimization ite 
geomconvergencewin          : 2 *! Geometry optimization convergence tolerance  
geomcontinuation            : F *! Read information for continuation of a previ 
geombackupiter              : 1 *! Number of geometry optimisation iterations b 
geomresetdkngwfsiter        : 6 *! Number of geom iterations between resets of  
geomreusedkngwfs            : T *! Re-use density kernel and NGWFs during geome 
geomprintinvhessian         : F *! Write inverse Hessian to standard output (Bo 
geommethod                  : CARTESIAN *! Method for geometry optimization (St 
tssearchmethod              : LSTQST *! Specifies method to be used for TS sear 
tssearchlstqstprotocol      : LSTMAXIMUM *! Specifies LSTQST protocol (String)  
tssearchqstmaxiter          : 5 *! Specifies maximum number of QST steps (Integ 
tssearchcgmaxiter           : 20 *! Specifies maximum number of CG steps (Integ 
tssearchforcetol            : 5.0000000000000001E-3  ha/bohr *! Force tolerance 
tssearchdisptol             : 1.00000000000000002E-2  bohr *! Displacement tole 
mddeltat                    : 40.  aut *! Molecular dynamics time step (Physica 
mdnumiter                   : 100 *! Maximum number of molecular dynamics itera 
mdtemperature               : 9.49999999999999998E-4  hartree *! Temperature fo 
mdalgorithm                 : LEAPFROGVERLET *! Integration algorithm for molec 
mdthermostat                : NONE *! Thermostat for molecular dynamics (String 
mdcollisionfrequency        : 0.152  hartree *! Collision frequency for Anderse 
mixdenskern                 : 0 *! Number of coefficients used to build new gue 
mixngwfs                    : 0 *! Number of coefficients used to build new gue 
condreaddenskern            : F *! Read in conduction density kernel (Boolean)  
condreadtightboxngwfs       : F *! Read in universal tightbox conduction NGWFs  
condfixedshift              : F *! Fixed projected conduction Hamiltonian shift 
condcalcmaxeigen            : T *! Calculate maximum conduction Hamiltonian eig 
condnumstates               : 0 *! Number of conduction states to be optimised  
condkernelcutoff            : 1000. *! Conduction density kernel radius in Bohr 
condinitshift               : 0.E+0 *! Initial shifting factor for projected co 
condshiftbuffer             : 0.10000000000000001 *! Additional buffer for upda 
condnumextrastates          : 0 *! Number of extra conduction states for initia 
condnumextraits             : 0 *! Number of NGWF iterations with extra conduct 
condplotjointorbitals       : T *! Plot orbitals in the joint basis following a 
condplotvcorbitals          : T *! Plot orbitals in the val and cond NGWF basis 
condcalcopticalspectra      : F *! Calculate matrix elements for optical absorp 
condspeccalcmommatels       : T *! Calculate momentum matrix elements (default  
condspeccalcnonloccomm      : T *! Calculate nonlocal commutator for momentum m 
condspeccontderiv           : T *! Calculate non-local commuator using continuo 
condspecnonloccommshift     : 1.00000000000000005E-4 *! Finite difference shift 
bskpointpathspacing         : 0.18897269999999999  1/bohr *! K-point spacing al 
bsnumeigenvalues            : -1 *! Num of energy and occ. eigenvalues to print 
bsunfold                    : 0 0 0 *! Number of times to unfold Brillouin zone 
bsmethod                    : TB *! Method to use: 'KP' or 'TB' (String)        
dotddft                     : F *! Allow Time-Dependent DFT calculation (Boolea 
tddftmaximumenergy          : 1.  hartree *! Desired maximum of spectrum from T 
tddftresolution             : 1.00000000000000002E-3  hartree *! Desired resolu 
tddftpropagationmethod      : CRANKNICHOLSON *! Method used to integrate von Ne 
tddftsparsitylevel          : 0 *! Matrix sparsity when computing propagators e 
tddfttammdancoff            : F *! Invoke Tamm-Dancoff decoupling approximation 
tddftdipolekickstrength     : 0.0 0.0 0.0 *! Maximum allowed phase shift in TDD 
tddftxcfunctional           : LDA *! Exchange-correlation functional for TDDFT  
tddfthamiltonianmixing      : 0 *! Order of polynomial extrapolation to H(t + h 
tddftdamping                : 0.E+0  hartree *! Energy smearing when Fourier tr 
tddftenforcedidempotency    : F *! Project out at each timestep that part of ch 
tddftmaxithotelling         : 50 *! Number of Hotelling iteration per propagati 
tddftmaxresidhotelling      : 1.00000000000000007E-18 *! Max allowed value in H 
tddftinvoverlapexact        : T *! Renew inverse overlap with O N^3 algorithm b 
isimplicitsolvent           : F *! Use implicit solvent? (Boolean)              
issmearedionrep             : F *! Implicit solvent: use smeared ions for elect 
isincludecavitation         : F *! Implicit solvent: include cavitation energy  
isdensitythreshold          : 7.79999999999999986E-4 *! Implicit solvent: rho_0 
issolvationbeta             : 1.3 *! Implicit solvent: beta parameter in Fatteb 
isbulkpermittivity          : 1. *! Implicit solvent: eps_inf parameter in Fatt 
ismultigriddefecterrortol   : 1.00000000000000002E-2 *! Implicit solvent: stop  
ismultigriderrortol         : 1.00000000000000008E-5 *! Implicit solvent: stop  
issmearedionwidth           : 0.80000000000000004 *! Implicit solvent: Width of 
issurfacethickness          : 2.0000000000000001E-4 *! Implicit solvent: thickn 
issolventsurfacetension     : 4.76239999999999967E-5  ha/bohr**2 *! Implicit so 
ismultigridmaxiters         : 100 *! Implicit solvent: max number of iterations 
ismultigridnlevels          : 4 *! Implicit solvent: number of levels in multig 
isdiscretizationorder       : 8 *! Implicit solvent: discretization order (2nd, 
isbccoarseness              : 5 *! Open BCs: controls boundary condition coarse 
isbcsurfacecoarseness       : 1 *! Open BCs: controls boundary condition coarse 
isbcthreshold               : 1.00000000000000006E-9 *! Open BCs: controls boun 
ischecksolvenergygrad       : F *! Implicit solvent: sanity check the energy gr 
issolvationmethod           : DIRECT *! Implicit solvent: direct or corrective  
isdielectricmodel           : FIX_INITIAL *! Implicit solvent: how the cavity i 
isdielectricfunction        : FGF *! Implicit solvent: how the cavity is determ 
issolvationoutputdetail     : NONE *! Implicit solvent: controls extra output ( 
openbcionion                : F *! Force open BCs in ion-ion energy (Boolean)   
openbchartree               : F *! Force open BCs in Hartree potential (Boolean 
openbcpspot                 : F *! Force open BCs in local pseudopotential (Boo 
openbcpspotfinetunenptsx    : 100000 *! Open BCs in local pseudo, npts_x parame 
openbcpspotfinetunealpha    : 0.29999999999999999 *! Open BCs in local pseudo,  
openbcpspotfinetunef        : -1 *! Open BCs in local pseudo, fineness paramete 
hfxintegration              : 2 *! Variant of the numerical pointwise approach  
nlppforexchange             : F *! Give exchange matrix same sparsity as non-lo 
radialsegments              : 50 *! Number of radial segments in vmatrix evalua 
angularsegments             : 50 *! Number of angular segments in vmatrix evalu 
%block positionsabs         : *! Cartesian positions for each atom (Block)      
Ga    11.458780    13.000000    11.000000                                       
As    15.549700    13.000000    11.000000                                       
H     17.239280    15.244820    11.000000                                       
H     17.239280    10.755180    11.000000                                       
H     10.131480    15.668500    11.000000                                       
H     10.131480    10.331500    11.000000                                       
%endblock positionsabs      : *! Cartesian positions for each atom (Block)      
%block latticecart          : *! The simulation cell lattice vectors (Block)    
27.45000000000000    0.00000000000000    0.00000000000000                       
0.00000000000000   27.45000000000000    0.00000000000000                        
0.00000000000000    0.00000000000000   27.45000000000000                        
%endblock latticecart       : *! The simulation cell lattice vectors (Block)    
%block paddedlatticecart    : *! The simulation cell lattice vectors for the pa 
91.50000000000000    0.00000000000000    0.00000000000000                       
0.00000000000000   91.50000000000000    0.00000000000000                        
0.00000000000000    0.00000000000000   91.50000000000000                        
%endblock paddedlatticecart : *! The simulation cell lattice vectors for the pa 
%block species              : *! Species information (symbol, atomic number, nu 
Ga   Ga  31  4 10.0                                                             
As   As  33  4 10.0                                                             
H    H    1  1  8.0                                                             
%endblock species           : *! Species information (symbol, atomic number, nu 
%block speciespot           : *! Pseudopotential name for each species (Block)  
Ga "../../pseudo/Ga_OTF.usp"                                                    
As "../../pseudo/As_OTF.usp"                                                    
H  "../../pseudo/H_OTF.usp"                                                     
%endblock speciespot        : *! Pseudopotential name for each species (Block)  
-------------------------------------------------------------------------------
-------------------------------------------------------------------------------

<<<<<<<<<<<<<<<<<<<<<<<<< Pseudopotential information >>>>>>>>>>>>>>>>>>>>>>>>>
File: ../../pseudo/Ga_OTF.usp [ 2001 points up to Gmax=  52.9 (1/bohr)]
  Atomic number: 31;  ionic charge:  3.000000
    Shell 1: l = 0; rc = 1.96 bohr
    Shell 2: l = 1; rc = 1.96 bohr
  Core charge supplied for Nonlinear Core Corrections
File: ../../pseudo/As_OTF.usp [ 2001 points up to Gmax=  52.9 (1/bohr)]
  Atomic number: 33;  ionic charge:  5.000000
    Shell 1: l = 0; rc = 1.60 bohr
    Shell 2: l = 1; rc = 1.60 bohr
File: ../../pseudo/H_OTF.usp [ 2001 points up to Gmax=  52.9 (1/bohr)]
  Atomic number:  1;  ionic charge:  1.000000
    Shell 1: l = 0; rc = 1.25 bohr
<<<<<<<<<<<<<<<<<<<<<<<<<<<<<<<<<<<<<<< >>>>>>>>>>>>>>>>>>>>>>>>>>>>>>>>>>>>>>>

------------------------- Atom counting information ---------------------------
Symbol    Natoms    Nngwfs    Nprojs
  Ga         1         4         4
  As         1         4         4
  H          4         4         4
.......   ......    ......    ......
Totals:      6        12        12
-------------------------------------------------------------------------------
 
Determining parallel strategy ...... done

Calculating direct Ion-Ion energy ...
Ion-Ion Energy        :        12.78477947981484

Basis initialisation ...... done

============================== PSINC grid sizes ================================
                      Simulation cell:   45 x  45 x  45
                              FFT-box:   45 x  45 x  45
                                  PPD:    5 x   5 x   5
================================================================================

********************** Fourier parallelisation information *********************
       Coarse grid (whole simulation cell) dimensions:     45    45    45
          Real-space ('12') slabs/node (min max mean):     11    12    11
         Recip-space ('23') slabs/node (min max mean):      5     6     5
********************************************************************************

********************** Fourier parallelisation information *********************
       Double grid (whole simulation cell) dimensions:     90    90    90
          Real-space ('12') slabs/node (min max mean):     22    23    22
         Recip-space ('23') slabs/node (min max mean):     11    12    11
********************************************************************************

============================== PSINC grid sizes ================================
                          Padded cell:  150 x 150 x 150
                                  PPD:    5 x   5 x   5
================================================================================

********************** Fourier parallelisation information *********************
       Padded Grid (whole simulation cell) dimensions:    300   300   300
          Real-space ('12') slabs/node (min max mean):     75    75    75
         Recip-space ('23') slabs/node (min max mean):     37    38    37
********************************************************************************
Calculating transform of cutoff Coulomb interaction ... done
Writing "GaAs_dimer_coulomb.cube" ... done

=========================== Sparse matrix information ==========================
                        Overlap matrix filling: 100.00%
                        Density kernel filling: 100.00%
              NGWF-Proj overlap matrix filling: 100.00%
                    Hamiltonian matrix filling: 100.00%
                  NGWF diagonal matrix filling:  25.00%
                             KS matrix filling: 100.00% 
                           KSKS matrix filling: 100.00% 
================================================================================

Sparse matrix initialisation ... done
NGWF initialisation ...... done

Up spin density kernel initialisation ...... done
................................................................................
<<<<<<<<<<<<<<<< Penalty functional density kernel optimisation >>>>>>>>>>>>>>>>
~~~~~~~~~~~~~~~~~~~~~~~~~~~~~~~~~~~~~~~~~~~~~~~~~~~~~~~~~~~~~~~~~~~~~~~~~~~~~~~~
iter|       energy      |   rms grad  |  commutator |LScoef|CGcoef|      Ne    |
 1    -11.99159166397174 0.14132376302 0.12910841317 0.0469  0.000   12.00000000
 2    -12.12490490832312 0.08478718489 0.10516967166 0.6140 -0.561   12.00000000
 3    -12.17432612411334 0.09545518780 0.12521977810 0.0765  4.582   12.00000000

======================== Penalty functional minimisation =======================
   Final total energy     :     -12.320939806744
   Final penalty energy   :       0.136285153096
   RMS occupancy error    :       0.053285
   Occupancy bounds       : [-0.071, 1.072]
================================================================================

Finished density kernel iterations (   3)

################################################################################
########################### NGWF CG iteration  001 #############################
################################################################################
****** Reciprocal space K.E. preconditioning with k_zero =  3.0000 a0^-1 *******
................................................................................
<<<<<<<<<<<<<< LNV (Original version) density kernel optimisation >>>>>>>>>>>>>>
~~~~~~~~~~~~~~~~~~~~~~~~~~~~~~~~~~~~~~~~~~~~~~~~~~~~~~~~~~~~~~~~~~~~~~~~~~~~~~~~
iter|       energy      |  rms DeltaK |  commutator |LScoef|CGcoef|      Ne    |
 1    -12.04152766932129 0.00000000000 0.08141330331 0.6877  0.000   12.00000000
 2    -12.05044448960160 0.01151776209 0.02489504484 0.9816  0.093   12.00000000
 3    -12.05163020919377 0.00425870929 0.01297256507 0.0000  0.000   12.00000000
Finished density kernel iterations (   3)

------------------------------- NGWF line search -------------------------------
RMS gradient                =       0.00545587029450
Trial step length           =               0.122474
Gradient along search dir.  =         -5.51957616140
Functional at step 0        =     -12.05163020919377
Functional at step 1        =     -12.47026419000540
Functional predicted        =     -12.49552420742304
Selected quadratic step     =               0.160844
Conjugate gradients coeff.  =               0.000000
--------------------------- NGWF line search finished --------------------------
                                               

################################################################################
########################### NGWF CG iteration  002 #############################
################################################################################
****** Reciprocal space K.E. preconditioning with k_zero =  3.0000 a0^-1 *******
................................................................................
<<<<<<<<<<<<<< LNV (Original version) density kernel optimisation >>>>>>>>>>>>>>
~~~~~~~~~~~~~~~~~~~~~~~~~~~~~~~~~~~~~~~~~~~~~~~~~~~~~~~~~~~~~~~~~~~~~~~~~~~~~~~~
iter|       energy      |  rms DeltaK |  commutator |LScoef|CGcoef|      Ne    |
 1    -12.49539572386206 0.00000000000 0.11954359905 0.7038  0.000   12.00000000
 2    -12.54879446472941 0.02206048346 0.02751573772 0.8158  0.062   12.00000000
 3    -12.55276567424491 0.00841610704 0.00972005113 0.0000  0.000   12.00000000
Finished density kernel iterations (   3)

------------------------------- NGWF line search -------------------------------
RMS gradient                =       0.00131242592553
Trial step length           =               0.140354
Gradient along search dir.  =         -0.35058500075
Functional at step 0        =     -12.55276567424491
Functional at step 1        =     -12.59154171706146
Functional predicted        =     -12.61080121114095
Selected quadratic step     =               0.331078
Conjugate gradients coeff.  =               0.057866
--------------------------- NGWF line search finished --------------------------
                                               

################################################################################
########################### NGWF CG iteration  003 #############################
################################################################################
****** Reciprocal space K.E. preconditioning with k_zero =  3.0000 a0^-1 *******
................................................................................
<<<<<<<<<<<<<< LNV (Original version) density kernel optimisation >>>>>>>>>>>>>>
~~~~~~~~~~~~~~~~~~~~~~~~~~~~~~~~~~~~~~~~~~~~~~~~~~~~~~~~~~~~~~~~~~~~~~~~~~~~~~~~
iter|       energy      |  rms DeltaK |  commutator |LScoef|CGcoef|      Ne    |
 1    -12.61079951905944 0.00000000000 0.02057109403 0.9884  0.000   12.00000000
 2    -12.61280799365116 0.00516231527 0.00869717388 0.8870  0.168   12.00000000
 3    -12.61311086967426 0.00268864939 0.00282130630 0.0000  0.000   12.00000000
Finished density kernel iterations (   3)

------------------------------- NGWF line search -------------------------------
RMS gradient                =       0.00112326506378
Trial step length           =               0.215565
Gradient along search dir.  =         -0.23488070431
Functional at step 0        =     -12.61311086967426
Functional at step 1        =     -12.64372973987015
Functional predicted        =     -12.64513484353912
Selected quadratic step     =               0.272683
Conjugate gradients coeff.  =               0.732512
--------------------------- NGWF line search finished --------------------------
                                               

################################################################################
########################### NGWF CG iteration  004 #############################
################################################################################
****** Reciprocal space K.E. preconditioning with k_zero =  3.0000 a0^-1 *******
................................................................................
<<<<<<<<<<<<<< LNV (Original version) density kernel optimisation >>>>>>>>>>>>>>
~~~~~~~~~~~~~~~~~~~~~~~~~~~~~~~~~~~~~~~~~~~~~~~~~~~~~~~~~~~~~~~~~~~~~~~~~~~~~~~~
iter|       energy      |  rms DeltaK |  commutator |LScoef|CGcoef|      Ne    |
 1    -12.64524045785397 0.00000000000 0.00942900657 1.0542  0.000   12.00000000
 2    -12.64565216251725 0.00227045339 0.00208338214 0.8000  0.054   12.00000000
 3    -12.64566905402532 0.00056952460 0.00061034637 0.0000  0.000   12.00000000
Finished density kernel iterations (   3)

------------------------------- NGWF line search -------------------------------
RMS gradient                =       0.00059970197106
Trial step length           =               0.242448
Gradient along search dir.  =         -0.06701709811
Functional at step 0        =     -12.64566905402532
Functional at step 1        =     -12.65538468216535
Functional predicted        =     -12.65577244696295
Selected quadratic step     =               0.301517
Conjugate gradients coeff.  =               0.285040
--------------------------- NGWF line search finished --------------------------
                                               

################################################################################
########################### NGWF CG iteration  005 #############################
################################################################################
****** Reciprocal space K.E. preconditioning with k_zero =  3.0000 a0^-1 *******
................................................................................
<<<<<<<<<<<<<< LNV (Original version) density kernel optimisation >>>>>>>>>>>>>>
~~~~~~~~~~~~~~~~~~~~~~~~~~~~~~~~~~~~~~~~~~~~~~~~~~~~~~~~~~~~~~~~~~~~~~~~~~~~~~~~
iter|       energy      |  rms DeltaK |  commutator |LScoef|CGcoef|      Ne    |
 1    -12.65578706051461 0.00000000000 0.00255991973 0.7632  0.000   12.00000000
 2    -12.65581192010140 0.00052052327 0.00112960236 1.0597  0.063   12.00000000
 3    -12.65581409571511 0.00022902470 0.00037483138 0.0000  0.000   12.00000000
Finished density kernel iterations (   3)

------------------------------- NGWF line search -------------------------------
RMS gradient                =       0.00048097255636
Trial step length           =               0.270374
Gradient along search dir.  =         -0.04318073400
Functional at step 0        =     -12.65581409571511
Functional at step 1        =     -12.66186141663058
Functional predicted        =     -12.66186924180765
Selected quadratic step     =               0.280456
Conjugate gradients coeff.  =               0.643235
--------------------------- NGWF line search finished --------------------------
                                               

################################################################################
########################### NGWF CG iteration  006 #############################
################################################################################
****** Reciprocal space K.E. preconditioning with k_zero =  3.0000 a0^-1 *******
................................................................................
<<<<<<<<<<<<<< LNV (Original version) density kernel optimisation >>>>>>>>>>>>>>
~~~~~~~~~~~~~~~~~~~~~~~~~~~~~~~~~~~~~~~~~~~~~~~~~~~~~~~~~~~~~~~~~~~~~~~~~~~~~~~~
iter|       energy      |  rms DeltaK |  commutator |LScoef|CGcoef|      Ne    |
 1    -12.66187247146361 0.00000000000 0.00320557428 0.8039  0.000   12.00000000
 2    -12.66188925704681 0.00048670513 0.00124636073 1.1331  0.193   12.00000000
 3    -12.66189381697222 0.00027363087 0.00056838744 0.0000  0.000   12.00000000
Finished density kernel iterations (   3)

------------------------------- NGWF line search -------------------------------
RMS gradient                =       0.00031601859441
Trial step length           =               0.275369
Gradient along search dir.  =         -0.01859984271
Functional at step 0        =     -12.66189381697222
Functional at step 1        =     -12.66510258882867
Functional predicted        =     -12.66532199210790
Selected quadratic step     =               0.368624
Conjugate gradients coeff.  =               0.431703
--------------------------- NGWF line search finished --------------------------
                                               

################################################################################
########################### NGWF CG iteration  007 #############################
################################################################################
****** Reciprocal space K.E. preconditioning with k_zero =  3.0000 a0^-1 *******
................................................................................
<<<<<<<<<<<<<< LNV (Original version) density kernel optimisation >>>>>>>>>>>>>>
~~~~~~~~~~~~~~~~~~~~~~~~~~~~~~~~~~~~~~~~~~~~~~~~~~~~~~~~~~~~~~~~~~~~~~~~~~~~~~~~
iter|       energy      |  rms DeltaK |  commutator |LScoef|CGcoef|      Ne    |
 1    -12.66532632289828 0.00000000000 0.00418283433 0.6417  0.000   12.00000000
 2    -12.66534652911768 0.00038286948 0.00128162337 1.3958  0.064   12.00000000
 3    -12.66534935237796 0.00018454202 0.00050230820 0.0000  0.000   12.00000000
Finished density kernel iterations (   3)

------------------------------- NGWF line search -------------------------------
RMS gradient                =       0.00029082765408
Trial step length           =               0.318603
Gradient along search dir.  =         -0.01568371914
Functional at step 0        =     -12.66534935237796
Functional at step 1        =     -12.66679610004380
Functional predicted        =     -12.66710765208678
Selected quadratic step     =               0.224220
Conjugate gradients coeff.  =               0.000000
--------------------------- NGWF line search finished --------------------------
                                               

################################################################################
########################### NGWF CG iteration  008 #############################
################################################################################
****** Reciprocal space K.E. preconditioning with k_zero =  3.0000 a0^-1 *******
................................................................................
<<<<<<<<<<<<<< LNV (Original version) density kernel optimisation >>>>>>>>>>>>>>
~~~~~~~~~~~~~~~~~~~~~~~~~~~~~~~~~~~~~~~~~~~~~~~~~~~~~~~~~~~~~~~~~~~~~~~~~~~~~~~~
iter|       energy      |  rms DeltaK |  commutator |LScoef|CGcoef|      Ne    |
 1    -12.66710772183805 0.00000000000 0.00117780714 0.6925  0.000   12.00000000
 2    -12.66710896521809 0.00009640759 0.00043303821 1.4888  0.123   12.00000000
 3    -12.66710929423820 0.00005275582 0.00011131272 1.1143  0.113   12.00000000
 4    -12.66710932208025 0.00001603618 0.00001939996 0.0000  0.000   12.00000000
Finished density kernel iterations (   4)

------------------------------- NGWF line search -------------------------------
RMS gradient                =       0.00017543068492
Trial step length           =               0.267277
Gradient along search dir.  =         -0.00571066931
Functional at step 0        =     -12.66710932208025
Functional at step 1        =     -12.66825292528408
Functional predicted        =     -12.66863108798595
Selected quadratic step     =               0.532955
Conjugate gradients coeff.  =               0.363865
--------------------------- NGWF line search finished --------------------------
                                               

################################################################################
########################### NGWF CG iteration  009 #############################
################################################################################
****** Reciprocal space K.E. preconditioning with k_zero =  3.0000 a0^-1 *******
................................................................................
<<<<<<<<<<<<<< LNV (Original version) density kernel optimisation >>>>>>>>>>>>>>
~~~~~~~~~~~~~~~~~~~~~~~~~~~~~~~~~~~~~~~~~~~~~~~~~~~~~~~~~~~~~~~~~~~~~~~~~~~~~~~~
iter|       energy      |  rms DeltaK |  commutator |LScoef|CGcoef|      Ne    |
 1    -12.66863086776759 0.00000000000 0.00212292857 0.6710  0.000   12.00000000
 2    -12.66863724947138 0.00024662043 0.00065158161 1.1996  0.072   12.00000000
 3    -12.66863806545155 0.00012105357 0.00029778190 1.2873  0.139   12.00000000
 4    -12.66863818734964 0.00003186381 0.00005711642 0.0000  0.000   12.00000000
Finished density kernel iterations (   4)

------------------------------- NGWF line search -------------------------------
RMS gradient                =       0.00014596135185
Trial step length           =               0.377421
Gradient along search dir.  =         -0.00396693193
Functional at step 0        =     -12.66863818734964
Functional at step 1        =     -12.66969960549415
Functional predicted        =     -12.66992415166523
Selected quadratic step     =               0.648342
Conjugate gradients coeff.  =               0.692253
--------------------------- NGWF line search finished --------------------------
                                               

################################################################################
########################### NGWF CG iteration  010 #############################
################################################################################
****** Reciprocal space K.E. preconditioning with k_zero =  3.0000 a0^-1 *******
................................................................................
<<<<<<<<<<<<<< LNV (Original version) density kernel optimisation >>>>>>>>>>>>>>
~~~~~~~~~~~~~~~~~~~~~~~~~~~~~~~~~~~~~~~~~~~~~~~~~~~~~~~~~~~~~~~~~~~~~~~~~~~~~~~~
iter|       energy      |  rms DeltaK |  commutator |LScoef|CGcoef|      Ne    |
 1    -12.66992281707956 0.00000000000 0.00319238196 0.6658  0.000   12.00000000
 2    -12.66993901418935 0.00039818759 0.00090055265 1.1888  0.056   12.00000000
 3    -12.66994063952359 0.00017718904 0.00043537530 1.2659  0.139   12.00000000
 4    -12.66994087975034 0.00004392746 0.00009072557 0.0000  0.000   12.00000000
Finished density kernel iterations (   4)

------------------------------- NGWF line search -------------------------------
RMS gradient                =       0.00013190214654
Trial step length           =               0.494670
Gradient along search dir.  =         -0.00326624273
Functional at step 0        =     -12.66994087975034
Functional at step 1        =     -12.67060255406037
Functional predicted        =     -12.67062495248002
Selected quadratic step     =               0.418874
Conjugate gradients coeff.  =               0.816635
--------------------------- NGWF line search finished --------------------------
                                               

################################################################################
########################### NGWF CG iteration  011 #############################
################################################################################
****** Reciprocal space K.E. preconditioning with k_zero =  3.0000 a0^-1 *******
................................................................................
<<<<<<<<<<<<<< LNV (Original version) density kernel optimisation >>>>>>>>>>>>>>
~~~~~~~~~~~~~~~~~~~~~~~~~~~~~~~~~~~~~~~~~~~~~~~~~~~~~~~~~~~~~~~~~~~~~~~~~~~~~~~~
iter|       energy      |  rms DeltaK |  commutator |LScoef|CGcoef|      Ne    |
 1    -12.67062372907021 0.00000000000 0.00175567551 0.7272  0.000   12.00000000
 2    -12.67062918340640 0.00024651456 0.00059605731 1.1635  0.085   12.00000000
 3    -12.67062992665292 0.00012470564 0.00031268039 1.3026  0.145   12.00000000
 4    -12.67063004731585 0.00002563950 0.00006036619 0.9875  0.184   12.00000000
 5    -12.67063006417361 0.00002002704 0.00001482651 0.0000  0.000   12.00000000
Finished density kernel iterations (   5)

------------------------------- NGWF line search -------------------------------
RMS gradient                =       0.00009233077098
Trial step length           =               0.455197
Gradient along search dir.  =         -0.00159229144
Functional at step 0        =     -12.67063006417361
Functional at step 1        =     -12.67102135913461
Functional predicted        =     -12.67102386199361
Selected quadratic step     =               0.494630
Conjugate gradients coeff.  =               0.489992
--------------------------- NGWF line search finished --------------------------
                                               

################################################################################
########################### NGWF CG iteration  012 #############################
################################################################################
****** Reciprocal space K.E. preconditioning with k_zero =  3.0000 a0^-1 *******
................................................................................
<<<<<<<<<<<<<< LNV (Original version) density kernel optimisation >>>>>>>>>>>>>>
~~~~~~~~~~~~~~~~~~~~~~~~~~~~~~~~~~~~~~~~~~~~~~~~~~~~~~~~~~~~~~~~~~~~~~~~~~~~~~~~
iter|       energy      |  rms DeltaK |  commutator |LScoef|CGcoef|      Ne    |
 1    -12.67102315471072 0.00000000000 0.00102880747 0.7916  0.000   12.00000000
 2    -12.67102651639735 0.00021301497 0.00031303208 0.9562  0.078   12.00000000
 3    -12.67102683355150 0.00009346166 0.00018074572 1.1515  0.079   12.00000000
 4    -12.67102686372884 0.00001263728 0.00004519740 1.1842  0.197   12.00000000
 5    -12.67102686983206 0.00001038705 0.00001482779 0.0000  0.000   12.00000000
Finished density kernel iterations (   5)

------------------------------- NGWF line search -------------------------------
RMS gradient                =       0.00007641698268
Trial step length           =               0.474504
Gradient along search dir.  =         -0.00109104362
Functional at step 0        =     -12.67102686983206
Functional at step 1        =     -12.67112372325589
Functional predicted        =     -12.67118608178575
Selected quadratic step     =               0.291853
Conjugate gradients coeff.  =               0.684994
--------------------------- NGWF line search finished --------------------------
                                               

################################################################################
########################### NGWF CG iteration  013 #############################
################################################################################
****** Reciprocal space K.E. preconditioning with k_zero =  3.0000 a0^-1 *******
................................................................................
<<<<<<<<<<<<<< LNV (Original version) density kernel optimisation >>>>>>>>>>>>>>
~~~~~~~~~~~~~~~~~~~~~~~~~~~~~~~~~~~~~~~~~~~~~~~~~~~~~~~~~~~~~~~~~~~~~~~~~~~~~~~~
iter|       energy      |  rms DeltaK |  commutator |LScoef|CGcoef|      Ne    |
 1    -12.67118589813040 0.00000000000 0.00042071193 0.9447  0.000   12.00000000
 2    -12.67118673386138 0.00012849443 0.00014645857 0.8640  0.076   12.00000000
 3    -12.67118679221007 0.00003650733 0.00007742352 1.1889  0.081   12.00000000
 4    -12.67118679870929 0.00000625863 0.00001807930 1.1740  0.142   12.00000000
 5    -12.67118679961714 0.00000390805 0.00000789400 0.0000  0.000   12.00000000
Finished density kernel iterations (   5)

------------------------------- NGWF line search -------------------------------
RMS gradient                =       0.00003671536585
Trial step length           =               0.372136
Gradient along search dir.  =         -0.00024996165
Functional at step 0        =     -12.67118679961714
Functional at step 1        =     -12.67121479636331
Functional predicted        =     -12.67122006736042
Selected quadratic step     =               0.266183
Conjugate gradients coeff.  =               0.000000
--------------------------- NGWF line search finished --------------------------
                                               

################################################################################
########################### NGWF CG iteration  014 #############################
################################################################################
****** Reciprocal space K.E. preconditioning with k_zero =  3.0000 a0^-1 *******
................................................................................
<<<<<<<<<<<<<< LNV (Original version) density kernel optimisation >>>>>>>>>>>>>>
~~~~~~~~~~~~~~~~~~~~~~~~~~~~~~~~~~~~~~~~~~~~~~~~~~~~~~~~~~~~~~~~~~~~~~~~~~~~~~~~
iter|       energy      |  rms DeltaK |  commutator |LScoef|CGcoef|      Ne    |
 1    -12.67122007321515 0.00000000000 0.00011801692 0.8498  0.000   12.00000000
 2    -12.67122013557715 0.00004216551 0.00003131023 0.8910  0.072   12.00000000
 3    -12.67122014029120 0.00000955934 0.00001348937 1.0785  0.082   12.00000000
 4    -12.67122014075673 0.00000281693 0.00000459894 1.0389  0.108   12.00000000
 5    -12.67122014080497 0.00000070634 0.00000246630 0.0000  0.000   12.00000000
Finished density kernel iterations (   5)

------------------------------- NGWF line search -------------------------------
RMS gradient                =       0.00002302942039
Trial step length           =               0.314732
Gradient along search dir.  =         -0.00009855939
Functional at step 0        =     -12.67122014080497
Functional at step 1        =     -12.67123800186181
Functional predicted        =     -12.67123842195965
Selected quadratic step     =               0.370967
Conjugate gradients coeff.  =               0.393433
--------------------------- NGWF line search finished --------------------------
                                               

################################################################################
########################### NGWF CG iteration  015 #############################
################################################################################
****** Reciprocal space K.E. preconditioning with k_zero =  3.0000 a0^-1 *******
................................................................................
<<<<<<<<<<<<<< LNV (Original version) density kernel optimisation >>>>>>>>>>>>>>
~~~~~~~~~~~~~~~~~~~~~~~~~~~~~~~~~~~~~~~~~~~~~~~~~~~~~~~~~~~~~~~~~~~~~~~~~~~~~~~~
iter|       energy      |  rms DeltaK |  commutator |LScoef|CGcoef|      Ne    |
 1    -12.67123840184613 0.00000000000 0.00027432884 0.7947  0.000   12.00000000
 2    -12.67123866299336 0.00008017119 0.00006674817 0.9378  0.076   12.00000000
 3    -12.67123868633285 0.00002250595 0.00003265838 1.1566  0.080   12.00000000
 4    -12.67123868864631 0.00000638057 0.00001125949 1.0975  0.125   12.00000000
 5    -12.67123868892124 0.00000167900 0.00000607138 0.0000  0.000   12.00000000
Finished density kernel iterations (   5)

------------------------------- NGWF line search -------------------------------
RMS gradient                =       0.00001522691011
Trial step length           =               0.341695
Gradient along search dir.  =         -0.00004362964
Functional at step 0        =     -12.67123868892124
Functional at step 1        =     -12.67124697335763
Functional predicted        =     -12.67124707747218
Selected quadratic step     =               0.384535
Conjugate gradients coeff.  =               0.437177
--------------------------- NGWF line search finished --------------------------
                                               

################################################################################
########################### NGWF CG iteration  016 #############################
################################################################################
****** Reciprocal space K.E. preconditioning with k_zero =  3.0000 a0^-1 *******
................................................................................
<<<<<<<<<<<<<< LNV (Original version) density kernel optimisation >>>>>>>>>>>>>>
~~~~~~~~~~~~~~~~~~~~~~~~~~~~~~~~~~~~~~~~~~~~~~~~~~~~~~~~~~~~~~~~~~~~~~~~~~~~~~~~
iter|       energy      |  rms DeltaK |  commutator |LScoef|CGcoef|      Ne    |
 1    -12.67124704832215 0.00000000000 0.00028670574 0.8283  0.000   12.00000000
 2    -12.67124738207154 0.00009472563 0.00007351339 0.9172  0.076   12.00000000
 3    -12.67124741030939 0.00002407795 0.00003596377 1.1344  0.080   12.00000000
 4    -12.67124741311486 0.00000691683 0.00001265727 1.1165  0.127   12.00000000
 5    -12.67124741346397 0.00000189664 0.00000703209 0.0000  0.000   12.00000000
Finished density kernel iterations (   5)

------------------------------- NGWF line search -------------------------------
RMS gradient                =       0.00000934724949
Trial step length           =               0.362482
Gradient along search dir.  =         -0.00001686305
Functional at step 0        =     -12.67124741346397
Functional at step 1        =     -12.67124869487822
Functional predicted        =     -12.67124934692725
Selected quadratic step     =               0.229314
Conjugate gradients coeff.  =               0.376829
--------------------------- NGWF line search finished --------------------------
                                               

################################################################################
########################### NGWF CG iteration  017 #############################
################################################################################
****** Reciprocal space K.E. preconditioning with k_zero =  3.0000 a0^-1 *******
................................................................................
<<<<<<<<<<<<<< LNV (Original version) density kernel optimisation >>>>>>>>>>>>>>
~~~~~~~~~~~~~~~~~~~~~~~~~~~~~~~~~~~~~~~~~~~~~~~~~~~~~~~~~~~~~~~~~~~~~~~~~~~~~~~~
iter|       energy      |  rms DeltaK |  commutator |LScoef|CGcoef|      Ne    |
 1    -12.67124933028820 0.00000000000 0.00014994190 0.8479  0.000   12.00000000
 2    -12.67124944032736 0.00005572840 0.00003925211 0.9115  0.072   12.00000000
 3    -12.67124944879020 0.00001301577 0.00001835248 1.0749  0.078   12.00000000
 4    -12.67124944956542 0.00000362936 0.00000666397 1.0977  0.128   12.00000000
 5    -12.67124944966729 0.00000103083 0.00000380461 0.0000  0.000   12.00000000
Finished density kernel iterations (   5)

------------------------------- NGWF line search -------------------------------
WARNING: slope along search direction is positive:    0.960254E-06
         Resetting conjugate gradients!
WARNING: slope along search direction is still positive.
         Reversing search direction!!
RMS gradient                =       0.00000221504220
Trial step length           =               0.288309
Gradient along search dir.  =         -0.00000090979
Functional at step 0        =     -12.67124944966729
Functional at step 1        =     -12.67124904801301
Functional predicted        =     -12.67124947557334
Selected quadratic step     =               0.056949
Conjugate gradients coeff.  =              -0.056156
--------------------------- NGWF line search finished --------------------------
                                               

################################################################################
########################### NGWF CG iteration  018 #############################
################################################################################
****** Reciprocal space K.E. preconditioning with k_zero =  3.0000 a0^-1 *******
................................................................................
<<<<<<<<<<<<<< LNV (Original version) density kernel optimisation >>>>>>>>>>>>>>
~~~~~~~~~~~~~~~~~~~~~~~~~~~~~~~~~~~~~~~~~~~~~~~~~~~~~~~~~~~~~~~~~~~~~~~~~~~~~~~~
iter|       energy      |  rms DeltaK |  commutator |LScoef|CGcoef|      Ne    |
 1    -12.67124947503517 0.00000000000 0.00001945994 0.8683  0.000   12.00000000
 2    -12.67124947742082 0.00000835922 0.00000589047 0.9054  0.069   12.00000000
 3    -12.67124947759175 0.00000183104 0.00000171310 1.0399  0.065   12.00000000
 4    -12.67124947760400 0.00000049609 0.00000071615 1.1880  0.112   12.00000000
 5    -12.67124947760581 0.00000013410 0.00000043717 0.0000  0.000   12.00000000
Finished density kernel iterations (   5)

           ........................................................
           | *** NGWF optimisation converged ***                  |
           | RMS NGWF gradient =    0.00000166132558              |
           | Criteria satisfied:                                  |
           | -> RMS NGWF gradient lower than set threshold.       |
           ========================================================

================================================================================
           ---------------- ENERGY COMPONENTS (Eh) ----------------
           | Kinetic                    :        5.10137761120389 |
           | Pseudopotential (local)    :      -41.50431448914264 |
           | Pseudopotential (non-local):       -3.73073497140384 |
           | Hartree                    :       20.30025070593397 |
           | Exchange-correlation       :       -5.62260781401202 |
           | Ion-ion (open BC)          :       12.78477947981484 |
           | Total                      :      -12.67124947760580 |
           --------------------------------------------------------
           Integrated density           :       12.00000000000003
================================================================================


                    <<<<< CALCULATION SUMMARY >>>>>
|ITER|    RMS GRADIENT   |     TOTAL ENERGY    |   step   |     Epredicted      
   1     0.00545587029450    -12.05163020919377   0.160844    -12.49552420742304
   2     0.00131242592553    -12.55276567424491   0.331078    -12.61080121114095
   3     0.00112326506378    -12.61311086967426   0.272683    -12.64513484353912
   4     0.00059970197106    -12.64566905402532   0.301517    -12.65577244696295
   5     0.00048097255636    -12.65581409571511   0.280456    -12.66186924180765
   6     0.00031601859441    -12.66189381697222   0.368624    -12.66532199210790
   7     0.00029082765408    -12.66534935237796   0.224220    -12.66710765208678
   8     0.00017543068492    -12.66710932208025   0.532955    -12.66863108798595
   9     0.00014596135185    -12.66863818734964   0.648342    -12.66992415166523
  10     0.00013190214654    -12.66994087975034   0.418874    -12.67062495248002
  11     0.00009233077098    -12.67063006417361   0.494630    -12.67102386199361
  12     0.00007641698268    -12.67102686983206   0.291853    -12.67118608178575
  13     0.00003671536585    -12.67118679961714   0.266183    -12.67122006736042
  14     0.00002302942039    -12.67122014080497   0.370967    -12.67123842195965
  15     0.00001522691011    -12.67123868892124   0.384535    -12.67124707747218
  16     0.00000934724949    -12.67124741346397   0.229314    -12.67124934692725
  17     0.00000221504220    -12.67124944966729   0.056949    -12.67124947557334
  18     0.00000166132558    -12.67124947760581  <-- CG                         
 
<QC>        [NGWF iterations]:       18
<QC>           [total_energy]:      -12.67124948
<QC>                     [F0]:      -12.67124945
<QC>                     [F1]:      -12.67124905
<QC>                     [F2]:        0.00000000
<QC>   [predicted_functional]:      -12.67124948
<QC>           [rms_gradient]:        0.000001661326
<QC>                 [G_init]:       -0.000000909791
<QC>        [quadratic_coeff]:        0.056949
<QC>            [cubic_coeff]:        0.000000
<QC>               [cg_coeff]:       -0.056156
<QC>           [trial_length]:        0.288309

======================== Writing density and potential =========================
Writing "GaAs_dimer_density.cube" ... done
Writing "GaAs_dimer_potential.cube" ... done
================================================================================
<QC>   [atom_1_population]:   2.724516
<QC>       [atom_1_charge]:   0.275484
<QC>   [atom_2_population]:   5.041904
<QC>       [atom_2_charge]:  -0.041904
<QC>   [atom_3_population]:   0.995110
<QC>       [atom_3_charge]:   0.004890

    Atomic Populations
    ------------------
Species  Ion    Total   Charge (e)
==================================
  Ga     1    2.724516   0.275484
  As     2    5.041904  -0.041904
  H      3    0.995110   0.004890
  H      4    0.995124   0.004876
  H      5    1.121685  -0.121685
  H      6    1.121661  -0.121661
==================================

        Bond         Population      Length (bohr)
==================================================
 As    2 -- H     3        0.70      2.80961
 As    2 -- H     4        0.70      2.80961
 Ga    1 -- H     5        0.78      2.98037
 Ga    1 -- H     6        0.78      2.98037
 Ga    1 -- As    2        0.93      4.09092
 H     3 -- H     4       -0.05      4.48964
 H     5 -- H     6       -0.03      5.33700
==================================================


========================== Dipole Moment Calculation ===========================
                             Type:    Single Molecule
 
Electronic dipole moment (e.bohr):    dx =        -166.606946459010
                                      dy =        -156.000088431489
                                      dz =        -131.999986982350
               Magnitude (e.bohr):                 263.662471281691
 
     Ionic dipole moment (e.bohr):    dx =         166.866360000000
                                      dy =         156.000000000000
                                      dz =         132.000000000000
               Magnitude (e.bohr):                 263.826424187665
 
     Total dipole moment (e.bohr):    dx =           0.259413540990
                                      dy =          -0.000088431489
                                      dz =           0.000013017650
               Magnitude (e.bohr):                   0.259413556389
 
<QC>        [elec_polarisation_d1]:        -166.606946459010
<QC>        [elec_polarisation_d2]:        -156.000088431489
<QC>        [elec_polarisation_d3]:        -131.999986982350
<QC>       [ionic_polarisation_d1]:         166.866360000000
<QC>       [ionic_polarisation_d2]:         156.000000000000
<QC>       [ionic_polarisation_d3]:         132.000000000000
<QC>       [total_polarisation_d1]:           0.259413540990
<QC>       [total_polarisation_d2]:          -0.000088431489
<QC>       [total_polarisation_d3]:           0.000013017650
 
================================================================================

=================== Orbital energy and occupancy information ===================

      Total number of orbitals:      12
   Number of occupied orbitals:       6
                 Occupancy sum:       6.000000000
                 HOMO-LUMO gap:       0.136578179 Eh
                 Mid-gap level:      -0.139143284 Eh

                        Orbital | Energy (Eh) | Occupancy
                            1    -0.608420018   1.0000000
                            2    -0.429505537   1.0000000
                            3    -0.367935374   1.0000000
                            4    -0.301735925   1.0000000
                            5    -0.281660365   1.0000000
                            6    -0.207432373   1.0000000
                        .......   --- gap ---   .........
                            7    -0.070854194   0.0000000
                            8    -0.043905490   0.0000000
                            9    -0.016411165   0.0000000
                           10     0.017152657   0.0000000
                           11     0.089480407   0.0000000
                           12     0.167945448   0.0000000
 
<QC>     [energy_eigenvalue_1]:     -0.608420018413
<QC>     [energy_eigenvalue_n]:      0.167945448476
<QC>  [occupancy_eigenvalue_1]:      1.000000
<QC>  [occupancy_eigenvalue_n]:      0.000000

================================================================================

********************* Unconstrained **********************
************************* Forces *************************
*                                                        *
* Element  Atom         Cartesian components (Eh/a)      *
* ------------------------------------------------------ *
*                       x            y            z      *
*                                                        *
*    Ga      1     -0.03272696  -0.00001830   0.00000327 *
*    As      2      0.02295728  -0.00000576   0.00000011 *
*    H       3     -0.00029356  -0.00029482  -0.00000110 *
*    H       4     -0.00027388   0.00029876  -0.00000039 *
*    H       5      0.00516899  -0.00718146  -0.00000101 *
*    H       6      0.00516813   0.00720157  -0.00000089 *
*                                                        *
**********************************************************
* TOTAL:            0.00000000   0.00000000   0.00000000 *
**********************************************************
 <QC>    [total_force(1,1)]:       -0.032726957238
 <QC>    [total_force(1,2)]:        0.022957281519
 <QC>    [total_force(1,3)]:       -0.000293562615
 <QC>    [total_force(1,4)]:       -0.000273879473
 <QC>    [total_force(1,5)]:        0.005168990672
 <QC>    [total_force(1,6)]:        0.005168127135
 <QC>    [total_force(2,1)]:       -0.000018299992
 <QC>    [total_force(2,2)]:       -0.000005755207
 <QC>    [total_force(2,3)]:       -0.000294822468
 <QC>    [total_force(2,4)]:        0.000298763995
 <QC>    [total_force(2,5)]:       -0.007181455591
 <QC>    [total_force(2,6)]:        0.007201569264
 <QC>    [total_force(3,1)]:        0.000003273916
 <QC>    [total_force(3,2)]:        0.000000110871
 <QC>    [total_force(3,3)]:       -0.000001102596
 <QC>    [total_force(3,4)]:       -0.000000385034
 <QC>    [total_force(3,5)]:       -0.000001009621
 <QC>    [total_force(3,6)]:       -0.000000887535

------------------------------ TIMING INFORMATION ------------------------------
TOTAL TIME:     321.243s on     4 node(s)

Job completed: 18-07-2011 11:35 (+0100)

Application 951529 resources: utime ~1220s, stime ~66s
