 +---------------------------------------------------------------+
 |                                                               |
 |        ####### #     # ####### ####### ####### ######         |
 |        #     # ##    # #          #    #       #     #        |
 |        #     # # #   # #          #    #       #     #        |
 |        #     # #  #  # #####      #    #####   ######         |
 |        #     # #   # # #          #    #       #              |
 |        #     # #    ## #          #    #       #              |
 |        ####### #     # #######    #    ####### #              |
 |                                                               |
 |        Linear-Scaling Ab Initio Total Energy Program          |
 |                                                               |
 |          Release for academic collaborators of ODG            |
 |                                              Version 3.0      |
 |                                                               |
 +---------------------------------------------------------------+
 |                                                               |
 |  Authors:                                                     |
 |  Peter D. Haynes, Nicholas D. M. Hine, Arash. A. Mostofi,     |
 |  Mike C. Payne and Chris-Kriton Skylaris                      |
 |                                                               |
 |  Contributors:                                                |
 |  P. W. Avraam, S. J. Clark, O. Dieguez, S. M. M. Dubois,      |
 |  J. Dziedzic, H. H. Helal, Q. O. Hill, D. D. O`Regan,         |
 |  C. J. Pickard, M. I. J. Probert, L. Ratcliff, M. Robinson    |
 |  and A. Ruiz Serrano                                          |
 |                                                               |
 |                                   Copyright (c) 2004-2011     |
 |                                                               |
 |  Please cite:                                                 |
 |  "Introducing ONETEP: Linear-scaling density functional       |
 |   simulations on parallel computers".                         |
 |   C.-K. Skylaris, P. D. Haynes, A. A. Mostofi, M. C. Payne.   |
 |   J. Chem. Phys. 122 084119 (2005).                           |
 |                                                               |
 |          in all publications arising from your use of ONETEP. |
 |                                                               |
 +---------------------------------------------------------------+
 |                                                               |
 |   ONETEP is based on developments described in the following  |
 |   publications:                                               |
 |                                                               |
 |  "Nonorthogonal generalized Wannier function pseudopotential  |
 |   plane-wave method".                                         |
 |   C.-K. Skylaris, A. A. Mostofi, P. D. Haynes, O. Dieguez,    |
 |   M. C. Payne.                                                |
 |   Phys. Rev. B 66 035119 (2002).                              |
 |                                                               |
 |  "Preconditioned iterative minimization for linear-scaling    |
 |   electronic structure calculations".                         |
 |   A. A. Mostofi, P. D. Haynes, C.-K. Skylaris, M. C. Payne.   |
 |   J. Chem. Phys. 119(17), pp.8842-8848 (2003).                |
 |                                                               |
 |  "Total-energy calculations on a real space grid with         |
 |   localized functions and a plane-wave basis".                |
 |   A. A. Mostofi, C.-K. Skylaris, P. D. Haynes, M. C. Payne.   |
 |   Comput. Phys. Commun. 147, pp.788-802 (2002).               |
 |                                                               |
 |  "Accurate kinetic energy evaluation in electronic structure  |
 |   calculations with localized functions on real space grids"  |
 |   C.-K. Skylaris, A. A. Mostofi, P. D. Haynes, C. J. Pickard, |
 |   M. C. Payne.                                                |
 |   Comput. Phys. Commun. 140, pp.315-322 (2001).               |
 |                                                               |
 +---------------------------------------------------------------+

Job started: 27-05-2011 23:57 (+0100)

Running on     4 processors.

Reading parameters from file "h_bond_spd_coarse.dat" ...... done
Reading geometry and species blocks from file "h_bond_spd_coarse.dat" ...    
  PSINC grid spacing along a1 set to   0.500000000000a0 from input file.
  Number of PPD points along a1 set to 6 from input file.
  PSINC grid spacing along a2 set to   0.500000000000a0 from input file.
  Number of PPD points along a2 set to 3 from input file.
  PSINC grid spacing along a3 set to   0.500000000000a0 from input file.
  Number of PPD points along a3 set to 1 from input file.
... done
-------------------------------------------------------------------------------
---------------------------- RUN-TIME PARAMETERS ------------------------------
-------------------------------------------------------------------------------
task                       : SINGLEPOINT *! Type of calculation (String)        
cutoffenergy               : 20.00000000000000       hartree *! Plane wave kine 
kernelcutoff               : 1000.000000000000 *! Density kernel radius in Bohr 
xcfunctional               : LDA *! Exchange-correlation functional (String)    
libxcxfuncid               : 0 *! Functional identifier for which exchange func 
libxccfuncid               : 0 *! Functional identifier for which correlation f 
charge                     : 0.000000000000000 *! The total charge of the syste 
spin                       : 0 *! Total spin of system (Integer)                
spinpolarized              : F *! Switch for spin polarization (Boolean)        
spinpolarised              : F *! Switch for spin polarisation (Boolean)        
constantefield             : 0.0 0.0 0.0 *! Cartesian coordinates of constant e 
fftboxpref                 : 0 0 0 *! Preferred FFT box dimensions (String)     
ppdnpoints                 : 6  3  1 *! PPD edge length in grid points for each 
psincspacing               : 0.5  0.5  0.5 *! PSINC grid spacing in atomic unit 
oldinput                   : F *! Read old-format input file (Boolean)          
develcode                  : *! For development code only (String)              
nnho                       : F *! Initialise NGWFs to nonorthogonal natural hyb 
ngwfhalo                   : -1.000000000000000 *! Halo extension to NGWF radii 
nonscforces                : F *! Include non self-consistent forces due to NGW 
maxitpalsermano            : 50 *! Maximum number of iterations for Palser-Mano 
maxitpen                   : 3 *! Max number of penalty functional iterations ( 
penparam                   : 4.000000000000000 *! Penalty functional parameter  
minitlnv                   : 3 *! Min number of LNV iterations (Integer)        
maxitlnv                   : 8 *! Max number of LNV iterations (Integer)        
maxitlnvcoarse             : 0 *! Max number of low-accuracy LNV iterations (In 
lnvthresholdorig           : 1.0000000000000001E-009 *! LNV convergence thresho 
lnvcgtype                  : LNV_FLETCHER *! Type of CG coefficient for LNV den 
lnvcgmaxstep               : 3.000000000000000 *! Maximum length of trial step  
exactlnv                   : T *! Use original LNV algorithm (Boolean)          
oldlnv                     : F *! Use LNV algorithm backwards compatible pre De 
lnvchecktrialsteps         : F *! Check stability of kernel at each trial step  
kerfix                     : 1 *! Density kernel fixing approach (Integer)      
maxitkernelfix             : 3 *! Maximum # iterations of Penalty Functional id 
initialdensrealspace       : F *! Construct initial density in real space from  
kerneldiis                 : F *! Use kernel DIIS in the inner loop (Boolean)   
kerneldiistype             : P *! Density mixing method (String)                
kerneldiismax              : 10 *! Max number of kernels saved during kernel DI 
kerneldiismaxit            : 25 *! Max number of kernel DIIS iterations (Intege 
kerneldiisthres            : 1.0000000000000001E-009 *! Density mixing converge 
kerneldiisliter            : 5 *! Number of linear mixing iterations (Integer)  
kerneldiiscin              : 0.9000000000000000 *! Coefficient for the input ke 
kerneldiiscriteria         : 1000 *! Density mixing convergence criteria (Strin 
maxitngwfcg                : 60 *! Max number of NGWF conjugate gradients (CG)  
ngwfcgtype                 : NGWF_FLETCHER *! Type of CG coefficient for NGWF o 
ngwfcgmaxstep              : -8.000000000000000 *! Maximum length of trial step 
eleccgmax                  : 5 *! Number of NGWF iterations to reset CG (Intege 
precondscheme              : TETER *! Recip-space preconditioning scheme (Strin 
kzero                      : 3.000000000000000 *! KE preconditioning parameter  
rprecond                   : 2.000000000000000 *! Radial cut-off for real-space 
precondrecip               : T *! Recip-space KE preconditioning (Boolean)      
precondreal                : F *! Real-space KE preconditioning (Boolean)       
smoothscheme               : NONE *! Smoothing scheme for the NGWF gradients at 
rsmooth                    : 1.500000000000000       bohr *! Radius of the unsh 
ksmooth                    : 5.000000000000000 *! Characteristic wavelength of  
occmix                     : 0.2500000000000000 *! Mix fraction of occupancy pr 
kernelupdate               : F *! Update density kernel during NGWF line search 
kernelchristoffelupdate    : F *! Update density kernel during NGWF line search 
maxithotelling             : 50 *! Number of Hotelling iteration per NGWF chang 
maxresidhotelling          : 9.9999999999999998E-013 *! Max allowed value in Ho 
maxitngwfdiis              : 0 *! Max number of NGWF DIIS steps (Integer)       
ngwfdiissize               : 4 *! Max size of the DIIS iterative subspace (Inte 
ngwfdiisreset              : 8 *! Max number of iteration for the resetting of  
ngwfdiismaxstep            : 2.000000000000000 *! Max length of trial step for  
ngwfthresholdorig          : 1.9999999999999999E-006 *! NGWF convergence thresh 
elecenergytol              : -1.0000000000000000E-003  hartree *! Tolerance on  
elecforcetol               : -1.0000000000000000E-003  ha/bohr *! Tolerance on  
ngwfmaxgrad                : -2.0000000000000002E-005 *! Maximum permissible va 
deltaeconv                 : T *! Use consecutive energy gains as a criterion f 
locpotintbatchsize         : 10 *! Size of NGWF in fftbox batch for locpot inte 
kineticintbatchsize        : 10 *! Size of NGWF in fftbox batch for kinetic int 
densitybatchsize           : 10 *! Size of NGWF in fftbox batch for charge dens 
ngwfgradbatchsize          : 10 *! Size of NGWF in fftbox batch for NGWF gradie 
densethreshold             : 0.4000000000000000 *! Threshold for matrix segment 
commsgroupsize             : 4 *! Number of nodes in a group (determines comms  
ovlpfornonlocal            : F *! Overlap sparsity for nonlocal (Boolean)       
usespacefillingcurve       : T *! Re-arrange atoms according to space-filling c 
corehamdenskernguess       : T *! Initial guess for density kernel from core Ha 
checkatoms                 : T *! Check atoms on top of each other (Boolean)    
locpotscheme               : FULL *! Scheme for evaluating local potential matr 
smoothprojectors           : -0.4000000000000000 *! Halfwidth of Gaussian filte 
smoothlocpspot             : -0.4000000000000000 *! Halfwidth of Gaussian filte 
oddpsincgrid               : F *! Force odd number of points in simcell psinc g 
evenpsincgrid              : F *! Force even number of points in simcell psinc  
realspaceprojectors        : F *! Whether to evaluate and store projectors in r 
outputdetail               : VERBOSE *! Level of output detail (String)         
pawoutputdetail            : DEFAULT *! Level of output detail for PAW: BRIEF,  
timingslevel               : 0 *! Level of timings output: 0(none) 1(nodes summ 
writeparams                : T *! Output runtime parameters at startup (Boolean 
writeforces                : F *! Write ionic forces (Boolean)                  
writepositions             : T *! Write ionic positions each geometry or MD ste 
writexyz                   : F *! Output coordinates in .xyz file (Boolean)     
printqc                    : T *! Print Quality Control information (Boolean)   
cubeformat                 : F *! Allow .cube format for plot outputs (Boolean) 
dxformat                   : F *! Allow .dx format for plot outputs (Boolean)   
dxformatcoarse             : F *! Output only points on the coarse grid (Boolea 
dxformatdigits             : 7 *! Number of significant digits in .dx output (I 
grdformat                  : T *! Allow .grd format for plot outputs (Boolean)  
writedensityplot           : T *! Write the charge density in plotting format ( 
writengwfplot              : F *! Write NGWFs in plotting format (Boolean)      
writengwfgradplot          : F *! Write NGWF Gradients in plotting format (Bool 
writengwfradial            : F *! Write NGWFs radial distributions (Boolean)    
writengwfgradradial        : F *! Write NGWFs gradients radial distributions (B 
writeradialstep            : 5.0000000000000001E-003  bohr *! Define the grid s 
writeradialsmear           : 1.0000000000000000E-002  bohr *! Define the gaussi 
readdenskern               : F *! Read density kernel restart information (Bool 
writedenskern              : F *! Write density kernel restart information (Boo 
readtightboxngwfs          : F *! Read in universal tightbox NGWFs restart info 
writetightboxngwfs         : F *! Write in universal tightbox NGWFs restart inf 
writeconvergeddkngwfs      : F *! Only write Density Kernel and NGWFs upon conv 
readswngwfs                : F *! Read NGWFs restart information in spherical w 
writeswngwfs               : F *! Write NGWFs restart information in spherical  
writemaxl                  : 3 *! Maximum angular momentum number when writing  
readmaxl                   : 3 *! Maximum angular momentum number when reading  
extransw                   : 0 *! Maximum number of zeros of the sph Bessel fun 
paw                        : F *! Uses a PAW construction to find correct core  
finegridscale              : 1.000000000000000 *! Ratio of size of fine grid to 
dblgridscale               : 1.000000000000000 *! Ratio of charge density / pot 
augfuncsrecip              : T *! Construct Augmentation functions in recip spa 
dispersion                 : 0 *! Select dispersion correction (Integer)        
vdwdcoeff                  : -1.000000000000000 *! Replacement VDW damping coef 
hubbardmaxiter             : 0 *! Maximum number of DFT+U projector optimisatio 
hubbardenergytol           : 1.0000000000000000E-008  hartree *! Energy toleran 
hubbardconvwin             : 2 *! Energy convergence window when using DFT+U pr 
hubbardprojmixing          : 0.000000000000000 *! Proportion of old Hubbard pro 
hubbardfunctional          : 1 *! DFT+U energy functional to use (Integer)      
hubbardtensorcorr          : 1 *! DFT+U projector tensorial correction to use ( 
hubbardngwfspinthreshold   : 2.0000000000000002E-005 *! NGWF RMS  gradient thre 
coulombcutoffradius        : 0.000000000000000 *! Radius of sphere or cylinder  
coulombcutofflength        : 0.000000000000000 *! Length of cylinder or width o 
coulombcutofftype          : NONE *! Type of cutoff coulomb interaction: NONE,  
coulombcutoffwriteint      : F *! Write real-space cutoff Coulomb interaction s 
pbccorrectioncutoff        : 0.000000000000000 *! alpha*L cutoff parameter for  
doproperties               : F *! Allow calculation of properties (Boolean)     
numeigenvalues             : 10 *! Number of energy and occupancy eigenvalues t 
homodensplot               : -1 *! Number of squared MOs to plot from HOMO and  
lumodensplot               : -1 *! Number of squared MOs to plot from LUMO and  
homoplot                   : 5 *! Number of MOs to plot from HOMO and lower (In 
lumoplot                   : 5 *! Number of MOs to plot from LUMO and higher (I 
dossmear                   : 3.6749324387552883E-003  hartree *! Half width of  
ldossmear                  : 3.6749324387552883E-003  hartree *! Lorentzian bro 
popncalculate              : F *! Allow population analysis (Boolean)           
popnbondcutoff             : 5.669178403750646       bohr *! Bond length cutoff 
ngwfanalysis               : F *! Perform NGWF analysis (Boolean)               
polarisationcalculate      : F *! Allow calculation of polarisation (Boolean)   
spreadcalculate            : F *! Calculate spread of NGWFs (Boolean)           
geommodulusest             : 1.7000000000000001E-002  ha/bohr**3 *! The estimat 
geomfrequencyest           : 7.6000000000000000E-003  hartree *! The estimated  
geomenergytol              : 9.9999999999999995E-007  hartree *! Geometry optim 
geomforcetol               : 2.0000000000000000E-003  ha/bohr *! Geometry optim 
geomdisptol                : 5.0000000000000001E-003  bohr *! Geometry optimiza 
geommaxiter                : 50 *! Maximum number of geometry optimization iter 
geomconvergencewin         : 2 *! Geometry optimization convergence tolerance w 
geomcontinuation           : F *! Read information for continuation of a previo 
geombackupiter             : 1 *! Number of geometry optimisation iterations be 
geomresetdkngwfsiter       : 6 *! Number of geom iterations between resets of k 
geomreusedkngwfs           : T *! Re-use density kernel and NGWFs during geomet 
geomprintinvhessian        : F *! Write inverse Hessian to standard output (Boo 
geommethod                 : CARTESIAN *! Method for geometry optimization (Str 
tssearchmethod             : LSTQST *! Specifies method to be used for TS searc 
tssearchlstqstprotocol     : LSTMAXIMUM *! Specifies LSTQST protocol (String)   
tssearchqstmaxiter         : 5 *! Specifies maximum number of QST steps (Intege 
tssearchcgmaxiter          : 20 *! Specifies maximum number of CG steps (Intege 
tssearchforcetol           : 5.0000000000000001E-003  ha/bohr *! Force toleranc 
tssearchdisptol            : 1.0000000000000000E-002  bohr *! Displacement tole 
mddeltat                   : 40.00000000000000       aut *! Molecular dynamics  
mdnumiter                  : 100 *! Maximum number of molecular dynamics iterat 
mdtemperature              : 9.5000000000000000E-004  hartree *! Temperature fo 
mdalgorithm                : LEAPFROGVERLET *! Integration algorithm for molecu 
mdthermostat               : NONE *! Thermostat for molecular dynamics (String) 
mdcollisionfrequency       : 0.1520000000000000       hartree *! Collision freq 
mixdenskern                : 0 *! Number of coefficients used to build new gues 
mixngwfs                   : 0 *! Number of coefficients used to build new gues 
condreaddenskern           : F *! Read in conduction density kernel (Boolean)   
condreadtightboxngwfs      : F *! Read in universal tightbox conduction NGWFs ( 
condfixedshift             : F *! Fixed projected conduction Hamiltonian shift  
condcalcmaxeigen           : T *! Calculate maximum conduction Hamiltonian eige 
condnumstates              : 0 *! Number of conduction states to be optimised f 
condkernelcutoff           : 1000.000000000000 *! Conduction density kernel rad 
condinitshift              : 0.000000000000000 *! Initial shifting factor for p 
condshiftbuffer            : 0.1000000000000000 *! Additional buffer for updati 
condnumextrastates         : 0 *! Number of extra conduction states for initial 
condnumextraits            : 0 *! Number of NGWF iterations with extra conducti 
condplotjointorbitals      : T *! Plot orbitals in the joint basis following a  
condplotvcorbitals         : T *! Plot orbitals in the val and cond NGWF basis  
condcalcopticalspectra     : F *! Calculate matrix elements for optical absorpt 
condspeccalcmommatels      : T *! Calculate momentum matrix elements (default t 
condspeccalcnonloccomm     : T *! Calculate nonlocal commutator for momentum ma 
condspeccontderiv          : T *! Calculate non-local commuator using continuou 
condspecnonloccommshift    : 1.0000000000000000E-004 *! Finite difference shift 
bskpointpathspacing        : 0.1889727000000000       1/bohr *! K-point spacing 
bsnumeigenvalues           : -1 *! Num of energy and occ. eigenvalues to print  
bsunfold                   : 0 0 0 *! Number of times to unfold Brillouin zone  
bsmethod                   : TB *! Method to use: 'KP' or 'TB' (String)         
dotddft                    : F *! Allow Time-Dependent DFT calculation (Boolean 
tddftmaximumenergy         : 1.000000000000000       hartree *! Desired maximum 
tddftresolution            : 1.0000000000000000E-003  hartree *! Desired resolu 
tddftpropagationmethod     : CRANKNICHOLSON *! Method used to integrate von Neu 
tddftsparsitylevel         : 0 *! Matrix sparsity when computing propagators e. 
tddfttammdancoff           : F *! Invoke Tamm-Dancoff decoupling approximation  
tddftdipolekickstrength    : 0.0 0.0 0.0 *! Maximum allowed phase shift in TDDF 
tddftxcfunctional          : LDA *! Exchange-correlation functional for TDDFT ( 
tddfthamiltonianmixing     : 0 *! Order of polynomial extrapolation to H(t + ha 
tddftdamping               : 0.000000000000000       hartree *! Energy smearing 
tddftenforcedidempotency   : F *! Project out at each timestep that part of cha 
tddftmaxithotelling        : 50 *! Number of Hotelling iteration per propagatio 
tddftmaxresidhotelling     : 1.0000000000000001E-018 *! Max allowed value in Ho 
tddftinvoverlapexact       : T *! Renew inverse overlap with O N^3 algorithm be 
isimplicitsolvent          : F *! Use implicit solvent? (Boolean)               
issmearedionrep            : F *! Implicit solvent: use smeared ions for electr 
isincludecavitation        : F *! Implicit solvent: include cavitation energy ( 
isdensitythreshold         : 7.7999999999999999E-004 *! Implicit solvent: rho_0 
issolvationbeta            : 1.300000000000000 *! Implicit solvent: beta parame 
isbulkpermittivity         : 1.000000000000000 *! Implicit solvent: eps_inf par 
ismultigriddefecterrortol  : 1.0000000000000000E-002 *! Implicit solvent: stop  
ismultigriderrortol        : 1.0000000000000001E-005 *! Implicit solvent: stop  
issmearedionwidth          : 0.8000000000000000 *! Implicit solvent: Width of G 
issurfacethickness         : 2.0000000000000001E-004 *! Implicit solvent: thick 
issolventsurfacetension    : 4.7623999999999997E-005  ha/bohr**2 *! Implicit so 
ismultigridmaxiters        : 100 *! Implicit solvent: max number of iterations  
ismultigridnlevels         : 4 *! Implicit solvent: number of levels in multigr 
isdiscretizationorder      : 8 *! Implicit solvent: discretization order (2nd,  
isbccoarseness             : 5 *! Implicit solvent: controls boundary condition 
isbcsurfacecoarseness      : 1 *! Implicit solvent: controls boundary condition 
ischecksolvenergygrad      : F *! Implicit solvent: sanity check the energy gra 
issolvationmethod          : DIRECT *! Implicit solvent: direct or corrective m 
isdielectricmodel          : FIX_INITIAL *! Implicit solvent: how the cavity is 
isdielectricfunction       : FGF *! Implicit solvent: how the cavity is determi 
issolvationoutputdetail    : NONE *! Implicit solvent: controls extra output (S 
openbcionion               : F *! Force open BCs in ion-ion energy (Boolean)    
openbchartree              : F *! Force open BCs in Hartree potential (Boolean) 
openbcpspot                : F *! Force open BCs in local pseudopotential (Bool 
openbcpspotfinetunenptsx   : 100000 *! Open BCs in local pseudo, npts_x paramet 
openbcpspotfinetunealpha   : 0.3000000000000000 *! Open BCs in local pseudo, al 
openbcpspotfinetunef       : -1 *! Open BCs in local pseudo, fineness parameter 
%block positionsabs        : *! Cartesian positions for each atom (Block)       
O     24.887507   23.896975   22.647313                                         
C     27.731659   23.667449   22.643306                                         
H     28.655157   21.721170   22.637547                                         
H     28.955467   25.440371   22.646039                                         
O     19.766101   21.820471   22.648599                                         
H     17.687651   22.103070   22.651801                                         
H     20.725313   23.685785   22.651874                                         
%endblock positionsabs     : *! Cartesian positions for each atom (Block)       
%block latticecart         : *! The simulation cell lattice vectors (Block)     
51.00     0.00     0.00                                                         
0.00    51.00     0.00                                                          
0.00     0.00    51.00                                                          
%endblock latticecart      : *! The simulation cell lattice vectors (Block)     
%block species             : *! Species information (symbol, atomic number, num 
O    O    8    4    6.3                                                         
C    C    6    4    6.3                                                         
H    H    1    1    6.0                                                         
%endblock species          : *! Species information (symbol, atomic number, num 
%block speciespot          : *! Pseudopotential name for each species (Block)   
O    "../../pseudo/oxygen_spd.recpot"                                           
C    "../../pseudo/carbon_spd.recpot"                                           
H    "../../pseudo/hydrogen_coul.recpot"                                        
%endblock speciespot       : *! Pseudopotential name for each species (Block)   
%block speciesatomicset    : *! Atomic set name for each species (Block)        
O    "../../fireballs/O_SZ_6.0_recpot01_600eV.fbl"                              
C    "../../fireballs/C_SZ_6.0_recpot00_600eV.fbl"                              
H    "../../fireballs/H_SZ_6.0_recpot00_600eV.fbl"                              
%endblock speciesatomicset : *! Atomic set name for each species (Block)        
-------------------------------------------------------------------------------
-------------------------------------------------------------------------------

<<<<<<<<<<<<<<<<<<<<<<<<< Pseudopotential information >>>>>>>>>>>>>>>>>>>>>>>>>
File: ../../pseudo/oxygen_spd.recpot [ 2001 points up to Gmax=  52.9 (1/bohr)]
  Atomic number:  8;  ionic charge:  6.000000
    Shell 1: l = 0; rc = 1.01 bohr
    Shell 2: l = 1; rc = 1.60 bohr
    Shell 3: l = 2; rc = 1.60 bohr
File: ../../pseudo/carbon_spd.recpot [ 2001 points up to Gmax=  52.9 (1/bohr)]
  Atomic number:  6;  ionic charge:  4.000000
    Shell 1: l = 0; rc = 1.25 bohr
    Shell 2: l = 1; rc = 1.48 bohr
    Shell 3: l = 2; rc = 1.54 bohr
File: ../../pseudo/hydrogen_coul.recpot [ 2001 points up to Gmax=  52.9 (1/bohr)]
  Atomic number:  1;  ionic charge:  1.000000
    Local potential
<<<<<<<<<<<<<<<<<<<<<<<<<<<<<<<<<<<<<<< >>>>>>>>>>>>>>>>>>>>>>>>>>>>>>>>>>>>>>>

------------------------- Atom counting information ---------------------------
Symbol    Natoms    Nngwfs    Nprojs
  O          2         8        18
  C          1         4         9
  H          4         4         0
.......   ......    ......    ......
Totals:      7        16        27
-------------------------------------------------------------------------------

Determining parallel strategy ...
... using space-filling curve
... NGWF load balancing: max      5;  min      1;  average      4
... Projector load balancing: max      9;  min      0;  average      7
... done

Calculating Ewald energy ...
              Ewald: real-space energy =      27.419782
        Ewald: reciprocal-space energy =       1.617082
         Ewald: (sum_charge)**2 Energy =       2.050031
         Ewald: (sum_charge**2) Energy =       2.494981
                          Ewald Energy =      24.491852
... FFT-box specified

Basis initialisation ...
... Atom positions lie inside simulation cell
... NGWF spheres initialised
... Projector spheres initialised
... NGWF tight boxes initialised
... NGWF basis size (local,global):      28468     91184
... Tight-boxes gathered
... done

============================== PSINC grid sizes ================================
                      Simulation cell:  102 x 102 x 102
                              FFT-box:   81 x  81 x  81
                                  PPD:    6 x   3 x   1
Grid space d1=  0.500000000000a0 (KE cutoff=  30.38533Eh = 826.82697eV)
Grid space d2=  0.500000000000a0 (KE cutoff=  30.38533Eh = 826.82697eV)
Grid space d3=  0.500000000000a0 (KE cutoff=  30.38533Eh = 826.82697eV)
================================================================================

********************** Fourier parallelisation information *********************
       Coarse grid (whole simulation cell) dimensions:    102   102   102

                 Real-space grid ('12' slabs):
                   Node    0:   25 (from    1 to   25)
                   Node    1:   26 (from   26 to   51)
                   Node    2:   26 (from   52 to   77)
                   Node    3:   25 (from   78 to  102)

                 Reciprocal-space grid ('23' slabs):
                   Node    0:   13 (from    1 to   13)
                   Node    1:   13 (from   14 to   26)
                   Node    2:   13 (from   27 to   39)
                   Node    3:   13 (from   40 to   52)
********************************************************************************

=========================== Sparse matrix information ==========================
                        Overlap matrix filling: 100.00%
                        Density kernel filling: 100.00%
              NGWF-Proj overlap matrix filling:  77.08%
                    Hamiltonian matrix filling: 100.00%
                  NGWF diagonal matrix filling:  20.31%
                             KS matrix filling: 100.00% 
                           KSKS matrix filling: 100.00% 
================================================================================

Sparse matrix initialisation ... done
NGWF initialisation ...... done

============ Calculation of NGWF S^-1 using Hotelling algorithm ================ 
         Iteration  |  Frobenius norm and Maximum abs value    (of I-S*S_n^-1)   
               1       0.33873065E+01     0.87195226E+00
               2       0.30318181E+01     0.76030683E+00
               3       0.26125809E+01     0.59504965E+00
               4       0.21913303E+01     0.56148471E+00
               5       0.18205758E+01     0.52185056E+00
               6       0.14505473E+01     0.45366053E+00
               7       0.10083921E+01     0.34703263E+00
               8       0.56129156E+00     0.20975618E+00
               9       0.20761635E+00     0.81188840E-01
              10       0.30752749E-01     0.12779044E-01
              11       0.70500499E-03     0.32083733E-03
              12       0.41002058E-06     0.20236698E-06
              13       0.15870728E-12     0.80602192E-13
================================================================================
Up spin density kernel initialisation ... 
======= Optimisation of K by Palser-Manolopoulos canonical purification ======== 
         Iteration  |  Band structure energy |    c_n   
               1         -12.34808080548179    0.5563716
               2         -12.94432541413945    0.5288181
               3         -13.58548472044551    0.4797840
               4         -14.09268197904166    0.3990272
               5         -14.28628373963666    0.3634541
               6         -14.36336089567191    0.3677007
               7         -14.42208472073586    0.3551815
               8         -14.45871242362747    0.3488570
               9         -14.47824944896212    0.3832359
              10         -14.49385336205308    0.4319063
              11         -14.50750254560182    0.4746958
              12         -14.51759317364154    0.4963256
              13         -14.52284686044941    0.4999229
              14         -14.52407484549706    0.5000000
              15         -14.52413004189405    0.5000000
              16         -14.52413014635073    0.5026172
              17         -14.52413014635111    0.9993235
Final occupancy bounds: [    0.00000000000000:    1.00000000000000]
Closest occupancy to 0.5:     1.00000000000000
================================================================================
... done
   Initial electron number for spin 1:      20.00000000
     Final electron number for spin 1:      20.00000000
................................................................................
<<<<<<<<<<<<<<<< Penalty functional density kernel optimisation >>>>>>>>>>>>>>>>
~~~~~~~~~~~~~~~~~~~~~~~~~~~~~~~~~~~~~~~~~~~~~~~~~~~~~~~~~~~~~~~~~~~~~~~~~~~~~~~~
iter|       energy      |   rms grad  |  commutator |LScoef|CGcoef|      Ne    |
      Q0=E0+P0:     -36.631511167209=    -36.631511167209+      0.000000000000
    Trial step:       1.000000000000
            G0:     -17.524717398144
WARNING: minimum value of charge density: -0.3213
      Q1=E1+P1:     182.814634246704=    -17.451282687794+    200.265916934498
Quadratic term:    -236.970862812057
   Linear term:     -17.524717398144
  Optimal step:       0.036976523591
 Predicted min:     -36.955512730355
    !!! Quadratic minimum step length accepted !!!
 1    -36.63151116720852 0.26164083652 0.22118729599 0.0370  0.000   20.00000000
WARNING: minimum value of charge density: -0.0015
      Q0=E0+P0:     -37.161615194538=    -37.229987527396+      0.068372332859
    Trial step:       0.192292806913
            G0:      -2.572033840790
WARNING: minimum value of charge density: -0.0026
      Q1=E1+P1:     -37.608257481383=    -37.716552042003+      0.108294560620
Quadratic term:      -0.047941319877
   Linear term:      -0.494583606722
  Optimal step:       0.991888315077
 Predicted min:     -38.437200350868
    !!! Quadratic minimum step length accepted !!!
 2    -37.22998752739641 0.17679396522 0.20871393724 0.9919 -0.488   20.00000000
WARNING: minimum value of charge density: -0.0070
      Q0=E0+P0:     -36.965560317456=    -39.397612470356+      2.432052152900
    Trial step:       0.436729880190
WARNING: internal_polak_cg_coeff = 12.69593
WARNING: setting internal_polak_cg_coeff to zero
            G0:    -100.280915769738
WARNING: minimum value of charge density: -1.1861
      Q1=E1+P1:     122.677038143042=      4.611237214095+    118.065800928947
Quadratic term:    -203.438270789964
   Linear term:     -43.795672329467
  Optimal step:       0.047009047646
 Predicted min:     -39.322615491173
    !!! Quadratic minimum step length accepted !!!
 3    -39.39761247035569 0.62587724613 0.24248199472 0.0470  0.000   20.00000000
WARNING: minimum value of charge density: -0.0013

======================== Penalty functional minimisation =======================
   Final total energy     :     -39.448891773223
   Final penalty energy   :       0.531456756496
   RMS occupancy error    :       0.091126
   Occupancy bounds       : [-0.108, 1.169]
================================================================================

Finished density kernel iterations (   3)

################################################################################
########################### NGWF CG iteration  001 #############################
################################################################################
****** Reciprocal space K.E. preconditioning with k_zero =  3.0000 a0^-1 *******
   Initial electron number for spin 1:      20.00000000
     Final electron number for spin 1:      20.00000000

=================== Penalty functional idempotency correction ==================
 RMS occupancy error at iteration   1:  0.091126 (step -0.3779 Ne1=     20.0000)
 RMS occupancy error at iteration   2:  0.017505 (step -0.5462 Ne1=     20.0000)
 RMS occupancy error at iteration   3:  0.000943 (step -0.5018 Ne1=     20.0000)
            Final RMS occupancy error   :  0.000003 (Ne1=     20.0000)
               Final occupancy bounds   : [  0.0000,  1.0000]
================================================================================

................................................................................
<<<<<<<<<<<<<< LNV (Original version) density kernel optimisation >>>>>>>>>>>>>>
~~~~~~~~~~~~~~~~~~~~~~~~~~~~~~~~~~~~~~~~~~~~~~~~~~~~~~~~~~~~~~~~~~~~~~~~~~~~~~~~
iter|       energy      |  rms DeltaK |  commutator |LScoef|CGcoef|      Ne    |
      ideal mu1:      -0.195911850790
             Q0:     -38.656361334114
             G0:      -2.318418549796
   RMS gradient:       0.095164712263
    Initial Ne1:      19.99999932
      Final Ne1:      20.00000000

=================== Penalty functional idempotency correction ==================
 RMS occupancy error at iteration   1:  0.002446 (step -0.4920 Ne1=     20.0000)
 RMS occupancy error at iteration   2:  0.000012 (step -0.5000 Ne1=     20.0000)
            Final RMS occupancy error   :  0.000000 (Ne1=     20.0000)
               Final occupancy bounds   : [  0.0000,  1.0000]
================================================================================

 1    -38.65636133411395 0.00000000000 0.15135446998 0.1000  0.000   20.00000000
      ideal mu1:      -0.252887119613
             Q0:     -38.868035687194
             G0:      -2.948830480674
   RMS gradient:       0.079486315358
    Initial Ne1:      19.99999952
      Final Ne1:      20.00000000

=================== Penalty functional idempotency correction ==================
 RMS occupancy error at iteration   1:  0.008935 (step -0.4726 Ne1=     20.0000)
 RMS occupancy error at iteration   2:  0.000156 (step -0.4998 Ne1=     20.0000)
            Final RMS occupancy error   :  0.000000 (Ne1=     20.0000)
               Final occupancy bounds   : [  0.0000,  1.0000]
================================================================================

 2    -38.86803568719381 0.01406178696 0.12701358464 0.1000  0.698   20.00000000
      ideal mu1:      -0.334764694101
 3    -39.10709868479910 0.02108755439 0.08738559667 0.0000  0.000   20.00000000
Finished density kernel iterations (   3)

           ........................................................
           | *** NGWF optimisation not converged ***              |
           | RMS NGWF gradient =    0.00292370007154              |
           | Criteria not satisfied:                              |
           | -> RMS NGWF gradient higher than set threshold.      |
           ========================================================

------------------------------- NGWF line search -------------------------------
============ Calculation of NGWF S^-1 using Hotelling algorithm ================ 
         Iteration  |  Frobenius norm and Maximum abs value    (of I-S*S_n^-1)   
               1       0.21347969E-01     0.72055661E-02
               2       0.12211864E-03     0.58753323E-04
               3       0.68567509E-08     0.36402483E-08
               4       0.19941586E-14     0.88817842E-15
================================================================================
============ Calculation of NGWF S^-1 using Hotelling algorithm ================ 
         Iteration  |  Frobenius norm and Maximum abs value    (of I-S*S_n^-1)   
               1       0.15430669E+00     0.51467786E-01
               2       0.69972090E-02     0.30734859E-02
               3       0.23821305E-04     0.10915185E-04
               4       0.34374577E-09     0.16213852E-09
               5       0.15951838E-14     0.48539731E-15
================================================================================
RMS gradient                =       0.00292370007154
Trial step length           =               0.122474
Gradient along search dir.  =         -1.10699450710
Functional at step 0        =     -39.10709868479910
Functional at step 1        =     -39.23428645460304
Functional predicted        =     -39.65476757028756
Selected quadratic step     =               0.989470
Conjugate gradients coeff.  =               0.000000
--------------------------- NGWF line search finished --------------------------
                                               

################################################################################
########################### NGWF CG iteration  002 #############################
################################################################################
****** Reciprocal space K.E. preconditioning with k_zero =  3.0000 a0^-1 *******
   Initial electron number for spin 1:      20.32345812
     Final electron number for spin 1:      20.00000000

=================== Penalty functional idempotency correction ==================
 RMS occupancy error at iteration   1:  0.011348 (step -0.4771 Ne1=     20.0000)
 RMS occupancy error at iteration   2:  0.000217 (step -0.5003 Ne1=     20.0000)
 RMS occupancy error at iteration   3:  0.000000 (step -0.5000 Ne1=     20.0000)
            Final RMS occupancy error   :  0.000000 (Ne1=     20.0000)
               Final occupancy bounds   : [  0.0000,  1.0000]
================================================================================

................................................................................
<<<<<<<<<<<<<< LNV (Original version) density kernel optimisation >>>>>>>>>>>>>>
~~~~~~~~~~~~~~~~~~~~~~~~~~~~~~~~~~~~~~~~~~~~~~~~~~~~~~~~~~~~~~~~~~~~~~~~~~~~~~~~
iter|       energy      |  rms DeltaK |  commutator |LScoef|CGcoef|      Ne    |
      ideal mu1:      -0.434806799542
             Q0:     -39.646918982830
             G0:      -0.128744375820
   RMS gradient:       0.022425604073
     Trial step:       0.500000000000
             Q1:     -39.692383958867
 Quadratic coef:       0.018907211873
 Linear coef   :      -0.064372187910
           Qmin:     -39.701709961587
Quadratic minimum step length (  0.851159181254) accepted
    Initial Ne1:      20.00000000
      Final Ne1:      20.00000000

=================== Penalty functional idempotency correction ==================
 RMS occupancy error at iteration   1:  0.009567 (step -0.4729 Ne1=     20.0000)
 RMS occupancy error at iteration   2:  0.000146 (step -0.4999 Ne1=     20.0000)
            Final RMS occupancy error   :  0.000000 (Ne1=     20.0000)
               Final occupancy bounds   : [  0.0000,  1.0000]
================================================================================

 1    -39.64691898283020 0.00000000000 0.03907572292 0.8512  0.000   20.00000000
      ideal mu1:      -0.476684903543
             Q0:     -39.700204084210
             G0:      -0.035590620556
   RMS gradient:       0.012134077193
     Trial step:       0.652364614788
             Q1:     -39.715527477681
 Quadratic coef:       0.007894667998
 Linear coef   :      -0.023218061469
           Qmin:     -39.717275048388
Quadratic minimum step length (  0.959295674626) accepted
    Initial Ne1:      19.99999666
      Final Ne1:      20.00000000

=================== Penalty functional idempotency correction ==================
 RMS occupancy error at iteration   1:  0.010113 (step -0.4703 Ne1=     20.0000)
 RMS occupancy error at iteration   2:  0.000180 (step -0.4998 Ne1=     20.0000)
            Final RMS occupancy error   :  0.000000 (Ne1=     20.0000)
               Final occupancy bounds   : [  0.0000,  1.0000]
================================================================================

 2    -39.70020408421011 0.02662824846 0.01900818161 0.9593  0.293   20.00000000
      ideal mu1:      -0.489929447897
 3    -39.71828927396191 0.01674004537 0.01123842092 0.0000  0.000   20.00000000
Finished density kernel iterations (   3)

           ........................................................
           | *** NGWF optimisation not converged ***              |
           | RMS NGWF gradient =    0.00115518271644              |
           | Criteria not satisfied:                              |
           | -> RMS NGWF gradient higher than set threshold.      |
           ========================================================

------------------------------- NGWF line search -------------------------------
============ Calculation of NGWF S^-1 using Hotelling algorithm ================ 
         Iteration  |  Frobenius norm and Maximum abs value    (of I-S*S_n^-1)   
               1       0.11084382E-01     0.40062946E-02
               2       0.36757648E-04     0.23433660E-04
               3       0.70988284E-09     0.56348393E-09
               4       0.23639155E-14     0.15543122E-14
================================================================================
============ Calculation of NGWF S^-1 using Hotelling algorithm ================ 
         Iteration  |  Frobenius norm and Maximum abs value    (of I-S*S_n^-1)   
               1       0.21635269E-01     0.82144574E-02
               2       0.14062537E-03     0.73917777E-04
               3       0.85698966E-08     0.55412273E-08
               4       0.16753244E-14     0.66613381E-15
================================================================================
RMS gradient                =       0.00115518271644
Trial step length           =               0.348116
Gradient along search dir.  =         -0.15288101686
Functional at step 0        =     -39.71828927396191
Functional at step 1        =     -39.76212981033612
Functional predicted        =     -39.79378136162348
Selected quadratic step     =               0.987593
Conjugate gradients coeff.  =               0.156112
--------------------------- NGWF line search finished --------------------------
                                               

################################################################################
########################### NGWF CG iteration  003 #############################
################################################################################
****** Reciprocal space K.E. preconditioning with k_zero =  3.0000 a0^-1 *******
   Initial electron number for spin 1:      20.03907384
     Final electron number for spin 1:      20.00000000

=================== Penalty functional idempotency correction ==================
 RMS occupancy error at iteration   1:  0.002372 (step -0.4974 Ne1=     20.0000)
 RMS occupancy error at iteration   2:  0.000024 (step -0.5001 Ne1=     20.0000)
            Final RMS occupancy error   :  0.000000 (Ne1=     20.0000)
               Final occupancy bounds   : [  0.0000,  1.0000]
================================================================================

................................................................................
<<<<<<<<<<<<<< LNV (Original version) density kernel optimisation >>>>>>>>>>>>>>
~~~~~~~~~~~~~~~~~~~~~~~~~~~~~~~~~~~~~~~~~~~~~~~~~~~~~~~~~~~~~~~~~~~~~~~~~~~~~~~~
iter|       energy      |  rms DeltaK |  commutator |LScoef|CGcoef|      Ne    |
      ideal mu1:      -0.468418220425
             Q0:     -39.793905718038
             G0:      -0.009283846863
   RMS gradient:       0.006022045069
     Trial step:       0.791081887825
             Q1:     -39.796262746042
 Quadratic coef:       0.004987255099
 Linear coef   :      -0.007344283103
           Qmin:     -39.796609534728
Quadratic minimum step length (  0.582477658127) accepted
    Initial Ne1:      19.99999999
      Final Ne1:      20.00000000

=================== Penalty functional idempotency correction ==================
 RMS occupancy error at iteration   1:  0.000311 (step -0.4991 Ne1=     20.0000)
 RMS occupancy error at iteration   2:  0.000000 (step -0.5000 Ne1=     20.0000)
            Final RMS occupancy error   :  0.000000 (Ne1=     20.0000)
               Final occupancy bounds   : [  0.0000,  1.0000]
================================================================================

 1    -39.79390571803839 0.00000000000 0.00927439358 0.5825  0.000   20.00000000
      ideal mu1:      -0.459277276085
             Q0:     -39.796609006121
             G0:      -0.002268211117
   RMS gradient:       0.002974280518
     Trial step:       0.678813321472
             Q1:     -39.797472087767
 Quadratic coef:       0.000676610276
 Linear coef   :      -0.001539691922
           Qmin:     -39.797484935477
Quadratic minimum step length (  0.772352581945) accepted
    Initial Ne1:      20.00000000
      Final Ne1:      20.00000000

=================== Penalty functional idempotency correction ==================
 RMS occupancy error at iteration   1:  0.000325 (step -0.4991 Ne1=     20.0000)
 RMS occupancy error at iteration   2:  0.000000 (step -0.5000 Ne1=     20.0000)
            Final RMS occupancy error   :  0.000000 (Ne1=     20.0000)
               Final occupancy bounds   : [  0.0000,  1.0000]
================================================================================

 2    -39.79660900612097 0.00520349500 0.00522972150 0.7724  0.244   20.00000000
      ideal mu1:      -0.462344357611
 3    -39.79748576122219 0.00355305102 0.00268573476 0.0000  0.000   20.00000000
Finished density kernel iterations (   3)

           ........................................................
           | *** NGWF optimisation not converged ***              |
           | RMS NGWF gradient =    0.00044641185531              |
           | Criteria not satisfied:                              |
           | -> RMS NGWF gradient higher than set threshold.      |
           ========================================================

------------------------------- NGWF line search -------------------------------
============ Calculation of NGWF S^-1 using Hotelling algorithm ================ 
         Iteration  |  Frobenius norm and Maximum abs value    (of I-S*S_n^-1)   
               1       0.10070784E-01     0.26228653E-02
               2       0.37384013E-04     0.11539577E-04
               3       0.82353224E-09     0.26511549E-09
               4       0.19279211E-14     0.69388939E-15
================================================================================
============ Calculation of NGWF S^-1 using Hotelling algorithm ================ 
         Iteration  |  Frobenius norm and Maximum abs value    (of I-S*S_n^-1)   
               1       0.80258361E-02     0.21882497E-02
               2       0.24937031E-04     0.76795821E-05
               3       0.38807629E-09     0.12105816E-09
               4       0.15175616E-14     0.66613381E-15
================================================================================
RMS gradient                =       0.00044641185531
Trial step length           =               0.586342
Gradient along search dir.  =         -0.02585376082
Functional at step 0        =     -39.79748576122219
Functional at step 1        =     -39.80830836523113
Functional predicted        =     -39.81073362796145
Selected quadratic step     =               1.024831
Conjugate gradients coeff.  =               0.149338
--------------------------- NGWF line search finished --------------------------
                                               

################################################################################
########################### NGWF CG iteration  004 #############################
################################################################################
****** Reciprocal space K.E. preconditioning with k_zero =  3.0000 a0^-1 *******
   Initial electron number for spin 1:      20.02475922
     Final electron number for spin 1:      20.00000000

=================== Penalty functional idempotency correction ==================
 RMS occupancy error at iteration   1:  0.001556 (step -0.4994 Ne1=     20.0000)
 RMS occupancy error at iteration   2:  0.000009 (step -0.5000 Ne1=     20.0000)
            Final RMS occupancy error   :  0.000000 (Ne1=     20.0000)
               Final occupancy bounds   : [  0.0000,  1.0000]
================================================================================

................................................................................
<<<<<<<<<<<<<< LNV (Original version) density kernel optimisation >>>>>>>>>>>>>>
~~~~~~~~~~~~~~~~~~~~~~~~~~~~~~~~~~~~~~~~~~~~~~~~~~~~~~~~~~~~~~~~~~~~~~~~~~~~~~~~
iter|       energy      |  rms DeltaK |  commutator |LScoef|CGcoef|      Ne    |
      ideal mu1:      -0.459476688943
             Q0:     -39.810735367493
             G0:      -0.000581081606
   RMS gradient:       0.001506602145
     Trial step:       0.724074044209
             Q1:     -39.810874634143
 Quadratic coef:       0.000281479459
 Linear coef   :      -0.000420746108
           Qmin:     -39.810892596806
Quadratic minimum step length (  0.541160867469) accepted
    Initial Ne1:      19.99999999
      Final Ne1:      20.00000000

=================== Penalty functional idempotency correction ==================
 RMS occupancy error at iteration   1:  0.000016 (step -0.5000 Ne1=     20.0000)
            Final RMS occupancy error   :  0.000000 (Ne1=     20.0000)
               Final occupancy bounds   : [  0.0000,  1.0000]
================================================================================

 1    -39.81073536749343 0.00000000000 0.00267447199 0.5412  0.000   20.00000000
      ideal mu1:      -0.458524352335
             Q0:     -39.810893396117
             G0:      -0.000159092288
   RMS gradient:       0.000790920738
     Trial step:       0.625971674979
             Q1:     -39.810964626111
 Quadratic coef:       0.000028357272
 Linear coef   :      -0.000099587266
           Qmin:     -39.810980830687
Quadratic minimum step length (  1.099167915941) accepted
    Initial Ne1:      19.99999994
      Final Ne1:      20.00000000

=================== Penalty functional idempotency correction ==================
 RMS occupancy error at iteration   1:  0.000044 (step -0.4999 Ne1=     20.0000)
            Final RMS occupancy error   :  0.000000 (Ne1=     20.0000)
               Final occupancy bounds   : [  0.0000,  1.0000]
================================================================================

 2    -39.81089339611735 0.00107062521 0.00140434826 1.0992  0.276   20.00000000
      ideal mu1:      -0.460152580193
 3    -39.81098271483006 0.00116024011 0.00082577814 0.0000  0.000   20.00000000
Finished density kernel iterations (   3)

           ........................................................
           | *** NGWF optimisation not converged ***              |
           | RMS NGWF gradient =    0.00021682779092              |
           | Criteria not satisfied:                              |
           | -> RMS NGWF gradient higher than set threshold.      |
           ========================================================

------------------------------- NGWF line search -------------------------------
============ Calculation of NGWF S^-1 using Hotelling algorithm ================ 
         Iteration  |  Frobenius norm and Maximum abs value    (of I-S*S_n^-1)   
               1       0.11149857E-01     0.25880257E-02
               2       0.59206109E-04     0.18559977E-04
               3       0.27241062E-08     0.91034480E-09
               4       0.14537542E-14     0.44408921E-15
================================================================================
============ Calculation of NGWF S^-1 using Hotelling algorithm ================ 
         Iteration  |  Frobenius norm and Maximum abs value    (of I-S*S_n^-1)   
               1       0.67459901E-02     0.16572631E-02
               2       0.22845856E-04     0.70301842E-05
               3       0.41724616E-09     0.13466733E-09
               4       0.12419273E-14     0.44408921E-15
================================================================================
RMS gradient                =       0.00021682779092
Trial step length           =               0.775178
Gradient along search dir.  =         -0.00611113066
Functional at step 0        =     -39.81098271483006
Functional at step 1        =     -39.81419699384030
Functional predicted        =     -39.81466658623993
Selected quadratic step     =               1.205627
Conjugate gradients coeff.  =               0.235917
--------------------------- NGWF line search finished --------------------------
                                               

################################################################################
########################### NGWF CG iteration  005 #############################
################################################################################
****** Reciprocal space K.E. preconditioning with k_zero =  3.0000 a0^-1 *******
   Initial electron number for spin 1:      20.03048364
     Final electron number for spin 1:      20.00000000

=================== Penalty functional idempotency correction ==================
 RMS occupancy error at iteration   1:  0.001301 (step -0.4979 Ne1=     20.0000)
 RMS occupancy error at iteration   2:  0.000004 (step -0.5000 Ne1=     20.0000)
            Final RMS occupancy error   :  0.000000 (Ne1=     20.0000)
               Final occupancy bounds   : [  0.0000,  1.0000]
================================================================================

................................................................................
<<<<<<<<<<<<<< LNV (Original version) density kernel optimisation >>>>>>>>>>>>>>
~~~~~~~~~~~~~~~~~~~~~~~~~~~~~~~~~~~~~~~~~~~~~~~~~~~~~~~~~~~~~~~~~~~~~~~~~~~~~~~~
iter|       energy      |  rms DeltaK |  commutator |LScoef|CGcoef|      Ne    |
      ideal mu1:      -0.461437572969
             Q0:     -39.814645249716
             G0:      -0.000336707516
   RMS gradient:       0.001146849483
     Trial step:       0.829486577001
             Q1:     -39.814674904110
 Quadratic coef:       0.000249639972
 Linear coef   :      -0.000279294365
           Qmin:     -39.814723367557
Quadratic minimum step length (  0.464010080890) accepted
    Initial Ne1:      20.00000000
      Final Ne1:      20.00000000

=================== Penalty functional idempotency correction ==================
 RMS occupancy error at iteration   1:  0.000008 (step -0.5000 Ne1=     20.0000)
            Final RMS occupancy error   :  0.000000 (Ne1=     20.0000)
               Final occupancy bounds   : [  0.0000,  1.0000]
================================================================================

 1    -39.81464524971615 0.00000000000 0.00178476359 0.4640  0.000   20.00000000
      ideal mu1:      -0.459245367687
             Q0:     -39.814722985638
             G0:      -0.000039564365
   RMS gradient:       0.000393953757
     Trial step:       0.620395143188
             Q1:     -39.814740058714
 Quadratic coef:       0.000007472464
 Linear coef   :      -0.000024545540
           Qmin:     -39.814743142428
Quadratic minimum step length (  1.018936632410) accepted
    Initial Ne1:      19.99999998
      Final Ne1:      20.00000000

=================== Penalty functional idempotency correction ==================
 RMS occupancy error at iteration   1:  0.000007 (step -0.5000 Ne1=     20.0000)
            Final RMS occupancy error   :  0.000000 (Ne1=     20.0000)
               Final occupancy bounds   : [  0.0000,  1.0000]
================================================================================

 2    -39.81472298563753 0.00075919412 0.00068395768 1.0189  0.118   20.00000000
      ideal mu1:      -0.459235402538
 3    -39.81474313479856 0.00057531214 0.00062585629 0.0000  0.000   20.00000000
Finished density kernel iterations (   3)

           ........................................................
           | *** NGWF optimisation not converged ***              |
           | RMS NGWF gradient =    0.00012415701788              |
           | Criteria not satisfied:                              |
           | -> RMS NGWF gradient higher than set threshold.      |
           ========================================================

================================================================================
           ---------------- ENERGY COMPONENTS (Eh) ----------------
           | Kinetic                    :       27.31726582982252 |
           | Pseudopotential (local)    :     -147.66587662551120 |
           | Pseudopotential (non-local):        7.51547047339845 |
           | Hartree                    :       58.07622790833479 |
           | Exchange-correlation       :       -9.54968232706882 |
           | Ewald                      :       24.49185160622569 |
           | Total                      :      -39.81474313479853 |
           --------------------------------------------------------
           ------ LOCAL ENERGY COMPONENTS FROM MATRIX TRACES ------
           | Pseudopotential (local)    :     -147.66587662551250 |
           | Hartree                    :       58.07622790833452 |
           --------------------------------------------------------
           Integrated density           :       20.00000000000001
           Integrated density tr(KS)    :       20.00000000000000
================================================================================


------------------------------- NGWF line search -------------------------------
============ Calculation of NGWF S^-1 using Hotelling algorithm ================ 
         Iteration  |  Frobenius norm and Maximum abs value    (of I-S*S_n^-1)   
               1       0.13364421E-01     0.39847441E-02
               2       0.98974559E-04     0.37100486E-04
               3       0.77857056E-08     0.27882434E-08
               4       0.16761504E-14     0.88817842E-15
================================================================================
============ Calculation of NGWF S^-1 using Hotelling algorithm ================ 
         Iteration  |  Frobenius norm and Maximum abs value    (of I-S*S_n^-1)   
               1       0.26399163E-02     0.74401764E-03
               2       0.40332803E-05     0.14752672E-05
               3       0.13290403E-10     0.48018568E-11
               4       0.13044802E-14     0.46490589E-15
================================================================================
RMS gradient                =       0.00012415701788
Trial step length           =               0.966735
Gradient along search dir.  =         -0.00202025236
Functional at step 0        =     -39.81474313479856
Functional at step 1        =     -39.81587085557015
Functional predicted        =     -39.81589855428304
Selected quadratic step     =               1.143837
Conjugate gradients coeff.  =               0.327878
--------------------------- NGWF line search finished --------------------------
                                               

################################################################################
########################### NGWF CG iteration  006 #############################
################################################################################
****** Reciprocal space K.E. preconditioning with k_zero =  3.0000 a0^-1 *******
   Initial electron number for spin 1:      20.01449946
     Final electron number for spin 1:      20.00000000

=================== Penalty functional idempotency correction ==================
 RMS occupancy error at iteration   1:  0.000804 (step -0.4991 Ne1=     20.0000)
 RMS occupancy error at iteration   2:  0.000002 (step -0.5000 Ne1=     20.0000)
            Final RMS occupancy error   :  0.000000 (Ne1=     20.0000)
               Final occupancy bounds   : [  0.0000,  1.0000]
================================================================================

................................................................................
<<<<<<<<<<<<<< LNV (Original version) density kernel optimisation >>>>>>>>>>>>>>
~~~~~~~~~~~~~~~~~~~~~~~~~~~~~~~~~~~~~~~~~~~~~~~~~~~~~~~~~~~~~~~~~~~~~~~~~~~~~~~~
iter|       energy      |  rms DeltaK |  commutator |LScoef|CGcoef|      Ne    |
      ideal mu1:      -0.461847191059
             Q0:     -39.815895659660
             G0:      -0.000180643259
   RMS gradient:       0.000840022457
     Trial step:       0.795074422909
             Q1:     -39.815904522652
 Quadratic coef:       0.000134761843
 Linear coef   :      -0.000143624835
           Qmin:     -39.815933927342
Quadratic minimum step length (  0.423682365339) accepted
    Initial Ne1:      20.00000000
      Final Ne1:      20.00000000

=================== Penalty functional idempotency correction ==================
 RMS occupancy error at iteration   1:  0.000003 (step -0.5000 Ne1=     20.0000)
            Final RMS occupancy error   :  0.000000 (Ne1=     20.0000)
               Final occupancy bounds   : [  0.0000,  1.0000]
================================================================================

 1    -39.81589565966024 0.00000000000 0.00140191157 0.4237  0.000   20.00000000
      ideal mu1:      -0.460294503198
             Q0:     -39.815933211786
             G0:      -0.000022473058
   RMS gradient:       0.000295288741
     Trial step:       0.580395565213
             Q1:     -39.815942883558
 Quadratic coef:       0.000003371491
 Linear coef   :      -0.000013043263
           Qmin:     -39.815945826882
Quadratic minimum step length (  1.122686223577) accepted
    Initial Ne1:      20.00000000
      Final Ne1:      20.00000000

=================== Penalty functional idempotency correction ==================
 RMS occupancy error at iteration   1:  0.000005 (step -0.5000 Ne1=     20.0000)
            Final RMS occupancy error   :  0.000000 (Ne1=     20.0000)
               Final occupancy bounds   : [  0.0000,  1.0000]
================================================================================

 2    -39.81593321178561 0.00048780299 0.00049827720 1.1227  0.124   20.00000000
      ideal mu1:      -0.460091121854
 3    -39.81594582377452 0.00047020495 0.00057093087 0.0000  0.000   20.00000000
Finished density kernel iterations (   3)

           ........................................................
           | *** NGWF optimisation not converged ***              |
           | RMS NGWF gradient =    0.00007202533012              |
           | Criteria not satisfied:                              |
           | -> RMS NGWF gradient higher than set threshold.      |
           ========================================================

------------------------------- NGWF line search -------------------------------
============ Calculation of NGWF S^-1 using Hotelling algorithm ================ 
         Iteration  |  Frobenius norm and Maximum abs value    (of I-S*S_n^-1)   
               1       0.13128939E-01     0.41822013E-02
               2       0.99125451E-04     0.40211994E-04
               3       0.76812944E-08     0.29929825E-08
               4       0.13723730E-14     0.44408921E-15
================================================================================
============ Calculation of NGWF S^-1 using Hotelling algorithm ================ 
         Iteration  |  Frobenius norm and Maximum abs value    (of I-S*S_n^-1)   
               1       0.14325249E-02     0.43829052E-03
               2       0.12180320E-05     0.48472039E-06
               3       0.11862908E-11     0.45696780E-12
================================================================================
RMS gradient                =       0.00007202533012
Trial step length           =               1.051564
Gradient along search dir.  =         -0.00069464351
Functional at step 0        =     -39.81594582377452
Functional at step 1        =     -39.81626899543208
Functional predicted        =     -39.81627333874363
Selected quadratic step     =               0.942973
Conjugate gradients coeff.  =               0.336533
--------------------------- NGWF line search finished --------------------------
                                               

################################################################################
########################### NGWF CG iteration  007 #############################
################################################################################
****** Reciprocal space K.E. preconditioning with k_zero =  3.0000 a0^-1 *******
   Initial electron number for spin 1:      20.00634975
     Final electron number for spin 1:      20.00000000

=================== Penalty functional idempotency correction ==================
 RMS occupancy error at iteration   1:  0.000458 (step -0.4995 Ne1=     20.0000)
 RMS occupancy error at iteration   2:  0.000001 (step -0.5000 Ne1=     20.0000)
            Final RMS occupancy error   :  0.000000 (Ne1=     20.0000)
               Final occupancy bounds   : [  0.0000,  1.0000]
================================================================================

................................................................................
<<<<<<<<<<<<<< LNV (Original version) density kernel optimisation >>>>>>>>>>>>>>
~~~~~~~~~~~~~~~~~~~~~~~~~~~~~~~~~~~~~~~~~~~~~~~~~~~~~~~~~~~~~~~~~~~~~~~~~~~~~~~~
iter|       energy      |  rms DeltaK |  commutator |LScoef|CGcoef|      Ne    |
      ideal mu1:      -0.461983510651
             Q0:     -39.816273965939
             G0:      -0.000059466110
   RMS gradient:       0.000481964202
     Trial step:       0.807218746865
             Q1:     -39.816278793215
 Quadratic coef:       0.000043174883
 Linear coef   :      -0.000048002159
           Qmin:     -39.816287308229
Quadratic minimum step length (  0.448735929227) accepted
    Initial Ne1:      20.00000000
      Final Ne1:      20.00000000

=================== Penalty functional idempotency correction ==================
 RMS occupancy error at iteration   1:  0.000001 (step -0.5000 Ne1=     20.0000)
            Final RMS occupancy error   :  0.000000 (Ne1=     20.0000)
               Final occupancy bounds   : [  0.0000,  1.0000]
================================================================================

 1    -39.81627396593888 0.00000000000 0.00081865444 0.4487  0.000   20.00000000
      ideal mu1:      -0.461056315833
             Q0:     -39.816287302080
             G0:      -0.000014309846
   RMS gradient:       0.000236447430
     Trial step:       0.601853848093
             Q1:     -39.816294012213
 Quadratic coef:       0.000001902302
 Linear coef   :      -0.000008612436
           Qmin:     -39.816297050010
Quadratic minimum step length (  1.362408853833) accepted
    Initial Ne1:      20.00000000
      Final Ne1:      20.00000000

=================== Penalty functional idempotency correction ==================
 RMS occupancy error at iteration   1:  0.000005 (step -0.5000 Ne1=     20.0000)
            Final RMS occupancy error   :  0.000000 (Ne1=     20.0000)
               Final occupancy bounds   : [  0.0000,  1.0000]
================================================================================

 2    -39.81628730208003 0.00028824207 0.00040868637 1.3624  0.241   20.00000000
      ideal mu1:      -0.460716001978
 3    -39.81629704577279 0.00045080713 0.00049362838 0.0000  0.000   20.00000000
Finished density kernel iterations (   3)

           ........................................................
           | *** NGWF optimisation not converged ***              |
           | RMS NGWF gradient =    0.00003936730288              |
           | Criteria not satisfied:                              |
           | -> RMS NGWF gradient higher than set threshold.      |
           ========================================================

------------------------------- NGWF line search -------------------------------
============ Calculation of NGWF S^-1 using Hotelling algorithm ================ 
         Iteration  |  Frobenius norm and Maximum abs value    (of I-S*S_n^-1)   
               1       0.62081403E-02     0.20818220E-02
               2       0.19189823E-04     0.86749685E-05
               3       0.24164355E-09     0.10674928E-09
               4       0.15752711E-14     0.66613381E-15
================================================================================
============ Calculation of NGWF S^-1 using Hotelling algorithm ================ 
         Iteration  |  Frobenius norm and Maximum abs value    (of I-S*S_n^-1)   
               1       0.71458025E-03     0.23420832E-03
               2       0.26323180E-06     0.11723694E-06
               3       0.47595772E-13     0.20206059E-13
================================================================================
RMS gradient                =       0.00003936730288
Trial step length           =               0.995789
Gradient along search dir.  =         -0.00020070175
Functional at step 0        =     -39.81629704577279
Functional at step 1        =     -39.81640696197889
Functional predicted        =     -39.81640807113486
Selected quadratic step     =               1.106372
Conjugate gradients coeff.  =               0.000000
--------------------------- NGWF line search finished --------------------------
                                               

################################################################################
########################### NGWF CG iteration  008 #############################
################################################################################
****** Reciprocal space K.E. preconditioning with k_zero =  3.0000 a0^-1 *******
   Initial electron number for spin 1:      20.00539964
     Final electron number for spin 1:      20.00000000

=================== Penalty functional idempotency correction ==================
 RMS occupancy error at iteration   1:  0.000273 (step -0.4997 Ne1=     20.0000)
 RMS occupancy error at iteration   2:  0.000000 (step -0.5000 Ne1=     20.0000)
            Final RMS occupancy error   :  0.000000 (Ne1=     20.0000)
               Final occupancy bounds   : [  0.0000,  1.0000]
================================================================================

................................................................................
<<<<<<<<<<<<<< LNV (Original version) density kernel optimisation >>>>>>>>>>>>>>
~~~~~~~~~~~~~~~~~~~~~~~~~~~~~~~~~~~~~~~~~~~~~~~~~~~~~~~~~~~~~~~~~~~~~~~~~~~~~~~~
iter|       energy      |  rms DeltaK |  commutator |LScoef|CGcoef|      Ne    |
      ideal mu1:      -0.461619626496
             Q0:     -39.816408110433
             G0:      -0.000013715117
   RMS gradient:       0.000231462037
     Trial step:       0.905522507371
             Q1:     -39.816410739314
 Quadratic coef:       0.000009790466
 Linear coef   :      -0.000012419347
           Qmin:     -39.816412048963
Quadratic minimum step length (  0.574334164105) accepted
    Initial Ne1:      20.00000000
      Final Ne1:      20.00000000

=================== Penalty functional idempotency correction ==================
 RMS occupancy error at iteration   1:  0.000001 (step -0.5000 Ne1=     20.0000)
            Final RMS occupancy error   :  0.000000 (Ne1=     20.0000)
               Final occupancy bounds   : [  0.0000,  1.0000]
================================================================================

 1    -39.81640811043329 0.00000000000 0.00040974177 0.5743  0.000   20.00000000
      ideal mu1:      -0.461339300791
             Q0:     -39.816412048274
             G0:      -0.000010109413
   RMS gradient:       0.000198722759
     Trial step:       0.721160531608
             Q1:     -39.816418371461
 Quadratic coef:       0.000000967323
 Linear coef   :      -0.000007290510
           Qmin:     -39.816425785032
Quadratic minimum step length (  2.717617369650) accepted
    Initial Ne1:      20.00000000
      Final Ne1:      20.00000000

=================== Penalty functional idempotency correction ==================
 RMS occupancy error at iteration   1:  0.000024 (step -0.4999 Ne1=     20.0000)
            Final RMS occupancy error   :  0.000000 (Ne1=     20.0000)
               Final occupancy bounds   : [  0.0000,  1.0000]
================================================================================

 2    -39.81641204827388 0.00016755727 0.00035100610 2.7176  0.737   20.00000000
      ideal mu1:      -0.461258726043
 3    -39.81642565504759 0.00082042033 0.00043176674 0.0000  0.000   20.00000000
Finished density kernel iterations (   3)

           ........................................................
           | *** NGWF optimisation not converged ***              |
           | RMS NGWF gradient =    0.00002534128874              |
           | Criteria not satisfied:                              |
           | -> RMS NGWF gradient higher than set threshold.      |
           ========================================================

------------------------------- NGWF line search -------------------------------
============ Calculation of NGWF S^-1 using Hotelling algorithm ================ 
         Iteration  |  Frobenius norm and Maximum abs value    (of I-S*S_n^-1)   
               1       0.92974168E-02     0.30934676E-02
               2       0.42663365E-04     0.19418510E-04
               3       0.12118413E-08     0.53582250E-09
               4       0.20014660E-14     0.88817842E-15
================================================================================
============ Calculation of NGWF S^-1 using Hotelling algorithm ================ 
         Iteration  |  Frobenius norm and Maximum abs value    (of I-S*S_n^-1)   
               1       0.42301388E-04     0.13687534E-04
               2       0.91990370E-09     0.41099546E-09
               3       0.19995058E-14     0.88817842E-15
================================================================================
RMS gradient                =       0.00002534128874
Trial step length           =               1.049625
Gradient along search dir.  =         -0.00008686491
Functional at step 0        =     -39.81642565504759
Functional at step 1        =     -39.81647144070260
Functional predicted        =     -39.81647144156508
Selected quadratic step     =               1.054201
Conjugate gradients coeff.  =               0.414368
--------------------------- NGWF line search finished --------------------------
                                               

################################################################################
########################### NGWF CG iteration  009 #############################
################################################################################
****** Reciprocal space K.E. preconditioning with k_zero =  3.0000 a0^-1 *******
   Initial electron number for spin 1:      20.00648616
     Final electron number for spin 1:      20.00000000

=================== Penalty functional idempotency correction ==================
 RMS occupancy error at iteration   1:  0.000356 (step -0.4996 Ne1=     20.0000)
 RMS occupancy error at iteration   2:  0.000001 (step -0.5000 Ne1=     20.0000)
            Final RMS occupancy error   :  0.000000 (Ne1=     20.0000)
               Final occupancy bounds   : [  0.0000,  1.0000]
================================================================================

................................................................................
<<<<<<<<<<<<<< LNV (Original version) density kernel optimisation >>>>>>>>>>>>>>
~~~~~~~~~~~~~~~~~~~~~~~~~~~~~~~~~~~~~~~~~~~~~~~~~~~~~~~~~~~~~~~~~~~~~~~~~~~~~~~~
iter|       energy      |  rms DeltaK |  commutator |LScoef|CGcoef|      Ne    |
      ideal mu1:      -0.462302635805
             Q0:     -39.816471515635
[...]
--------------------------- NGWF line search finished --------------------------
                                               

################################################################################
########################### NGWF CG iteration  012 #############################
################################################################################
****** Reciprocal space K.E. preconditioning with k_zero =  3.0000 a0^-1 *******
   Initial electron number for spin 1:      20.00035788
     Final electron number for spin 1:      20.00000000

=================== Penalty functional idempotency correction ==================
 RMS occupancy error at iteration   1:  0.000020 (step -0.5000 Ne1=     20.0000)
            Final RMS occupancy error   :  0.000000 (Ne1=     20.0000)
               Final occupancy bounds   : [  0.0000,  1.0000]
================================================================================

................................................................................
<<<<<<<<<<<<<< LNV (Original version) density kernel optimisation >>>>>>>>>>>>>>
~~~~~~~~~~~~~~~~~~~~~~~~~~~~~~~~~~~~~~~~~~~~~~~~~~~~~~~~~~~~~~~~~~~~~~~~~~~~~~~~
iter|       energy      |  rms DeltaK |  commutator |LScoef|CGcoef|      Ne    |
      ideal mu1:      -0.461677001358
             Q0:     -39.816489984982
             G0:      -0.000001210505
   RMS gradient:       0.000068764337
     Trial step:       1.324656565968
             Q1:     -39.816489261257
 Quadratic coef:       0.000002327229
 Linear coef   :      -0.000001603503
           Qmin:     -39.816490261193
Quadratic minimum step length (  0.456356250884) accepted
    Initial Ne1:      19.99999997
      Final Ne1:      20.00000000

=================== Penalty functional idempotency correction ==================
 RMS occupancy error at iteration   1:  0.000000 (step -0.5000 Ne1=     20.0000)
            Final RMS occupancy error   :  0.000000 (Ne1=     20.0000)
               Final occupancy bounds   : [  0.0000,  1.0000]
================================================================================

 1    -39.81648998498235 0.00000000000 0.00010561627 0.4564  0.000   20.00000000
      ideal mu1:      -0.461790606520
             Q0:     -39.816490261242
             G0:      -0.000000156515
   RMS gradient:       0.000024724628
     Trial step:       0.777505822585
             Q1:     -39.816490324591
 Quadratic coef:       0.000000058343
 Linear coef   :      -0.000000121692
           Qmin:     -39.816490324698
Quadratic minimum step length (  0.810859692652) accepted
    Initial Ne1:      19.99999999
      Final Ne1:      20.00000000

=================== Penalty functional idempotency correction ==================
 RMS occupancy error at iteration   1:  0.000000 (step -0.5000 Ne1=     20.0000)
            Final RMS occupancy error   :  0.000000 (Ne1=     20.0000)
               Final occupancy bounds   : [  0.0000,  1.0000]
================================================================================

 2    -39.81649026124224 0.00004756758 0.00003983639 0.8109  0.129   20.00000000
      ideal mu1:      -0.461790415057
             Q0:     -39.816490324696
             G0:      -0.000000072477
   RMS gradient:       0.000016826146
     Trial step:       0.794007639974
             Q1:     -39.816490353943
 Quadratic coef:       0.000000028301
 Linear coef   :      -0.000000057548
           Qmin:     -39.816490353950
Quadratic minimum step length (  0.807267727934) accepted
    Initial Ne1:      20.00000000
      Final Ne1:      20.00000000

=================== Penalty functional idempotency correction ==================
 RMS occupancy error at iteration   1:  0.000000 (step -0.5000 Ne1=     20.0000)
            Final RMS occupancy error   :  0.000000 (Ne1=     20.0000)
               Final occupancy bounds   : [  0.0000,  1.0000]
================================================================================

 3    -39.81649032469612 0.00003384081 0.00002857941 0.8073  0.463   20.00000000
      ideal mu1:      -0.461792051979
 4    -39.81649035395073 0.00002310953 0.00002652666 0.0000  0.000   20.00000000
Finished density kernel iterations (   4)

           ........................................................
           | *** NGWF optimisation not converged ***              |
           | RMS NGWF gradient =    0.00000538715065              |
           | Criteria not satisfied:                              |
           | -> RMS NGWF gradient higher than set threshold.      |
           ========================================================

------------------------------- NGWF line search -------------------------------
WARNING: slope along search direction is positive:    0.255934E-05
         Resetting conjugate gradients!
WARNING: slope along search direction is still positive.
         Reversing search direction!!
============ Calculation of NGWF S^-1 using Hotelling algorithm ================ 
         Iteration  |  Frobenius norm and Maximum abs value    (of I-S*S_n^-1)   
               1       0.56062509E-03     0.19906237E-03
               2       0.14305848E-06     0.63423310E-07
               3       0.11179040E-13     0.47739590E-14
================================================================================
============ Calculation of NGWF S^-1 using Hotelling algorithm ================ 
         Iteration  |  Frobenius norm and Maximum abs value    (of I-S*S_n^-1)   
               1       0.18911762E-03     0.67206436E-04
               2       0.16252460E-07     0.72083985E-08
               3       0.16548057E-14     0.66613381E-15
================================================================================
RMS gradient                =       0.00000538715065
Trial step length           =               0.109418
Gradient along search dir.  =         -0.00000375836
Functional at step 0        =     -39.81649035395073
Functional at step 1        =     -39.81649045464772
Functional predicted        =     -39.81649049009602
Selected quadratic step     =               0.072449
Conjugate gradients coeff.  =              -0.562965
--------------------------- NGWF line search finished --------------------------
                                               

################################################################################
########################### NGWF CG iteration  013 #############################
################################################################################
****** Reciprocal space K.E. preconditioning with k_zero =  3.0000 a0^-1 *******
   Initial electron number for spin 1:      19.99968918
     Final electron number for spin 1:      20.00000000

=================== Penalty functional idempotency correction ==================
 RMS occupancy error at iteration   1:  0.000017 (step -0.5000 Ne1=     20.0000)
            Final RMS occupancy error   :  0.000000 (Ne1=     20.0000)
               Final occupancy bounds   : [  0.0000,  1.0000]
================================================================================

................................................................................
<<<<<<<<<<<<<< LNV (Original version) density kernel optimisation >>>>>>>>>>>>>>
~~~~~~~~~~~~~~~~~~~~~~~~~~~~~~~~~~~~~~~~~~~~~~~~~~~~~~~~~~~~~~~~~~~~~~~~~~~~~~~~
iter|       energy      |  rms DeltaK |  commutator |LScoef|CGcoef|      Ne    |
      ideal mu1:      -0.461755841270
             Q0:     -39.816490489404
             G0:      -0.000000079677
   RMS gradient:       0.000017641994
     Trial step:       0.800610231938
             Q1:     -39.816490508080
 Quadratic coef:       0.000000045114
 Linear coef   :      -0.000000063791
           Qmin:     -39.816490511953
Quadratic minimum step length (  0.566030399027) accepted
    Initial Ne1:      19.99999997
      Final Ne1:      20.00000000

=================== Penalty functional idempotency correction ==================
 RMS occupancy error at iteration   1:  0.000000 (step -0.5000 Ne1=     20.0000)
            Final RMS occupancy error   :  0.000000 (Ne1=     20.0000)
               Final occupancy bounds   : [  0.0000,  1.0000]
================================================================================

 1    -39.81649048940351 0.00000000000 0.00002921803 0.5660  0.000   20.00000000
      ideal mu1:      -0.461785841765
             Q0:     -39.816490511953
             G0:      -0.000000026146
   RMS gradient:       0.000010106011
     Trial step:       0.673178823975
             Q1:     -39.816490527033
 Quadratic coef:       0.000000002520
 Linear coef   :      -0.000000017601
           Qmin:     -39.816490542682
Quadratic minimum step length (  2.350591721863) accepted
    Initial Ne1:      19.99999996
      Final Ne1:      20.00000000

=================== Penalty functional idempotency correction ==================
 RMS occupancy error at iteration   1:  0.000000 (step -0.5000 Ne1=     20.0000)
            Final RMS occupancy error   :  0.000000 (Ne1=     20.0000)
               Final occupancy bounds   : [  0.0000,  1.0000]
================================================================================

 2    -39.81649051195306 0.00001480712 0.00001772653 2.3506  0.328   20.00000000
      ideal mu1:      -0.461787960104
             Q0:     -39.816490542668
             G0:      -0.000000062458
   RMS gradient:       0.000015623057
     Trial step:       1.257922323107
             Q1:     -39.816490576829
 Quadratic coef:       0.000000044407
 Linear coef   :      -0.000000078568
           Qmin:     -39.816490577420
Quadratic minimum step length (  1.112806840103) accepted
    Initial Ne1:      19.99999995
      Final Ne1:      20.00000000

=================== Penalty functional idempotency correction ==================
 RMS occupancy error at iteration   1:  0.000000 (step -0.5000 Ne1=     20.0000)
            Final RMS occupancy error   :  0.000000 (Ne1=     20.0000)
               Final occupancy bounds   : [  0.0000,  1.0000]
================================================================================

 3    -39.81649054266791 0.00003386172 0.00002390538 1.1128  2.390   20.00000000
      ideal mu1:      -0.461766668731
 4    -39.81649057742207 0.00004026512 0.00001933220 0.0000  0.000   20.00000000
Finished density kernel iterations (   4)

           ........................................................
           | *** NGWF optimisation not converged ***              |
           | RMS NGWF gradient =    0.00000483889803              |
           | Criteria not satisfied:                              |
           | -> RMS NGWF gradient higher than set threshold.      |
           ========================================================

------------------------------- NGWF line search -------------------------------
============ Calculation of NGWF S^-1 using Hotelling algorithm ================ 
         Iteration  |  Frobenius norm and Maximum abs value    (of I-S*S_n^-1)   
               1       0.83134636E-03     0.29447481E-03
               2       0.31553157E-06     0.13965658E-06
               3       0.55656198E-13     0.24202862E-13
================================================================================
============ Calculation of NGWF S^-1 using Hotelling algorithm ================ 
         Iteration  |  Frobenius norm and Maximum abs value    (of I-S*S_n^-1)   
               1       0.68036971E-03     0.24091239E-03
               2       0.21144810E-06     0.93573888E-07
               3       0.25647690E-13     0.11102230E-13
================================================================================
RMS gradient                =       0.00000483889803
Trial step length           =               0.089035
Gradient along search dir.  =         -0.00000301792
Functional at step 0        =     -39.81649057742207
Functional at step 1        =     -39.81649010801679
Functional predicted        =     -39.81649060187664
Selected quadratic step     =               0.016206
Conjugate gradients coeff.  =              -0.806816
--------------------------- NGWF line search finished --------------------------
                                               

################################################################################
########################### NGWF CG iteration  014 #############################
################################################################################
****** Reciprocal space K.E. preconditioning with k_zero =  3.0000 a0^-1 *******
   Initial electron number for spin 1:      20.00012560
     Final electron number for spin 1:      20.00000000

=================== Penalty functional idempotency correction ==================
 RMS occupancy error at iteration   1:  0.000007 (step -0.5000 Ne1=     20.0000)
            Final RMS occupancy error   :  0.000000 (Ne1=     20.0000)
               Final occupancy bounds   : [  0.0000,  1.0000]
================================================================================

................................................................................
<<<<<<<<<<<<<< LNV (Original version) density kernel optimisation >>>>>>>>>>>>>>
~~~~~~~~~~~~~~~~~~~~~~~~~~~~~~~~~~~~~~~~~~~~~~~~~~~~~~~~~~~~~~~~~~~~~~~~~~~~~~~~
iter|       energy      |  rms DeltaK |  commutator |LScoef|CGcoef|      Ne    |
      ideal mu1:      -0.461781505059
             Q0:     -39.816490601765
             G0:      -0.000000025362
   RMS gradient:       0.000009953423
     Trial step:       1.183141819678
             Q1:     -39.816490593855
 Quadratic coef:       0.000000037917
 Linear coef   :      -0.000000030007
           Qmin:     -39.816490607702
Quadratic minimum step length (  0.468160691017) accepted
    Initial Ne1:      20.00000000
      Final Ne1:      20.00000000

=================== Penalty functional idempotency correction ==================
 RMS occupancy error at iteration   1:  0.000000 (step -0.5000 Ne1=     20.0000)
            Final RMS occupancy error   :  0.000000 (Ne1=     20.0000)
               Final occupancy bounds   : [  0.0000,  1.0000]
================================================================================

 1    -39.81649060176527 0.00000000000 0.00001510107 0.4682  0.000   20.00000000
      ideal mu1:      -0.461785123032
             Q0:     -39.816490607702
             G0:      -0.000000006279
   RMS gradient:       0.000004952470
     Trial step:       0.744244913904
             Q1:     -39.816490609705
 Quadratic coef:       0.000000002670
 Linear coef   :      -0.000000004673
           Qmin:     -39.816490609747
Quadratic minimum step length (  0.651291862510) accepted
    Initial Ne1:      20.00000000
      Final Ne1:      20.00000000

=================== Penalty functional idempotency correction ==================
 RMS occupancy error at iteration   1:  0.000000 (step -0.5000 Ne1=     20.0000)
            Final RMS occupancy error   :  0.000000 (Ne1=     20.0000)
               Final occupancy bounds   : [  0.0000,  1.0000]
================================================================================

 2    -39.81649060770175 0.00000785468 0.00000759188 0.6513  0.248   20.00000000
      ideal mu1:      -0.461781313224
             Q0:     -39.816490609745
             G0:      -0.000000001225
   RMS gradient:       0.000002187773
     Trial step:       0.696218827769
             Q1:     -39.816490610339
 Quadratic coef:       0.000000000259
 Linear coef   :      -0.000000000853
           Qmin:     -39.816490610448
Quadratic minimum step length (  1.147766983148) accepted
    Initial Ne1:      20.00000000
      Final Ne1:      20.00000000

=================== Penalty functional idempotency correction ==================
 RMS occupancy error at iteration   1:  0.000000 (step -0.5000 Ne1=     20.0000)
            Final RMS occupancy error   :  0.000000 (Ne1=     20.0000)
               Final occupancy bounds   : [  0.0000,  1.0000]
================================================================================

 3    -39.81649060974504 0.00000616978 0.00000359103 1.1478  0.195   20.00000000
      ideal mu1:      -0.461784365749
 4    -39.81649061044685 0.00000384399 0.00000271871 0.0000  0.000   20.00000000
Finished density kernel iterations (   4)

           ........................................................
           | *** NGWF optimisation converged ***                  |
           | RMS NGWF gradient =    0.00000037953644              |
           | Criteria satisfied:                                  |
           | -> RMS NGWF gradient lower than set threshold.       |
           ========================================================

================================================================================
           ---------------- ENERGY COMPONENTS (Eh) ----------------
           | Kinetic                    :       27.28177580102163 |
           | Pseudopotential (local)    :     -147.59783190720840 |
           | Pseudopotential (non-local):        7.52435576241781 |
           | Hartree                    :       58.02419041933246 |
           | Exchange-correlation       :       -9.54083229223598 |
           | Ewald                      :       24.49185160622569 |
           | Total                      :      -39.81649061044682 |
           --------------------------------------------------------
           ------ LOCAL ENERGY COMPONENTS FROM MATRIX TRACES ------
           | Pseudopotential (local)    :     -147.59783190720870 |
           | Hartree                    :       58.02419041933277 |
           --------------------------------------------------------
           Integrated density           :       20.00000000000001
           Integrated density tr(KS)    :       20.00000000000000
================================================================================


                    <<<<< CALCULATION SUMMARY >>>>>
|ITER|    RMS GRADIENT   |     TOTAL ENERGY    |   step   |     Epredicted      
   1     0.00292370007154    -39.10709868479910   0.989470    -39.65476757028756
   2     0.00115518271644    -39.71828927396191   0.987593    -39.79378136162348
   3     0.00044641185531    -39.79748576122219   1.024831    -39.81073362796145
   4     0.00021682779092    -39.81098271483006   1.205627    -39.81466658623993
   5     0.00012415701788    -39.81474313479856   1.143837    -39.81589855428304
   6     0.00007202533012    -39.81594582377452   0.942973    -39.81627333874363
   7     0.00003936730288    -39.81629704577279   1.106372    -39.81640807113486
   8     0.00002534128874    -39.81642565504759   1.054201    -39.81647144156508
   9     0.00001244389335    -39.81647607231139   0.691771    -39.81648300856257
  10     0.00001188561379    -39.81648642181804   0.072643    -39.81648693865410
  11     0.00000717990182    -39.81648978525501   0.048094    -39.81648998599296
  12     0.00000538715065    -39.81649035395073   0.072449    -39.81649049009602
  13     0.00000483889803    -39.81649057742207   0.016206    -39.81649060187664
  14     0.00000037953644    -39.81649061044685  <-- CG                         
 
<QC>        [NGWF iterations]:       14
<QC>           [total_energy]:      -39.81649061
<QC>                     [F0]:      -39.81649058
<QC>                     [F1]:      -39.81649011
<QC>                     [F2]:        0.00000000
<QC>   [predicted_functional]:      -39.81649060
<QC>           [rms_gradient]:        0.000000379536
<QC>                 [G_init]:       -0.000003017924
<QC>        [quadratic_coeff]:        0.016206
<QC>            [cubic_coeff]:        0.000000
<QC>               [cg_coeff]:       -0.806816
<QC>           [trial_length]:        0.089035

------------------------------ TIMING INFORMATION ------------------------------
TOTAL TIME:      93.592s on     4 node(s)

Job completed: 27-05-2011 23:58 (+0100)

Application 646072 resources: utime ~367s, stime ~8s
