 +---------------------------------------------------------------+
 |                                                               |
 |        ####### #     # ####### ####### ####### ######         |
 |        #     # ##    # #          #    #       #     #        |
 |        #     # # #   # #          #    #       #     #        |
 |        #     # #  #  # #####      #    #####   ######         |
 |        #     # #   # # #          #    #       #              |
 |        #     # #    ## #          #    #       #              |
 |        ####### #     # #######    #    ####### #              |
 |                                                               |
 |        Linear-Scaling Ab Initio Total Energy Program          |
 |                                                               |
 |          Release for academic collaborators of ODG            |
 |                                              Version 3.0      |
 |                                                               |
 +---------------------------------------------------------------+
 |                                                               |
 |  Authors:                                                     |
 |  Peter D. Haynes, Nicholas D. M. Hine, Arash. A. Mostofi,     |
 |  Mike C. Payne and Chris-Kriton Skylaris                      |
 |                                                               |
 |  Contributors:                                                |
 |  P. W. Avraam, S. J. Clark, O. Dieguez, S. M. M. Dubois,      |
 |  J. Dziedzic, H. H. Helal, Q. O. Hill, D. D. O`Regan,         |
 |  C. J. Pickard, M. I. J. Probert, L. Ratcliff, M. Robinson    |
 |  and A. Ruiz Serrano                                          |
 |                                                               |
 |                                   Copyright (c) 2004-2011     |
 |                                                               |
 |  Please cite:                                                 |
 |  "Introducing ONETEP: Linear-scaling density functional       |
 |   simulations on parallel computers".                         |
 |   C.-K. Skylaris, P. D. Haynes, A. A. Mostofi, M. C. Payne.   |
 |   J. Chem. Phys. 122 084119 (2005).                           |
 |                                                               |
 |          in all publications arising from your use of ONETEP. |
 |                                                               |
 +---------------------------------------------------------------+
 |                                                               |
 |   ONETEP is based on developments described in the following  |
 |   publications:                                               |
 |                                                               |
 |  "Nonorthogonal generalized Wannier function pseudopotential  |
 |   plane-wave method".                                         |
 |   C.-K. Skylaris, A. A. Mostofi, P. D. Haynes, O. Dieguez,    |
 |   M. C. Payne.                                                |
 |   Phys. Rev. B 66 035119 (2002).                              |
 |                                                               |
 |  "Preconditioned iterative minimization for linear-scaling    |
 |   electronic structure calculations".                         |
 |   A. A. Mostofi, P. D. Haynes, C.-K. Skylaris, M. C. Payne.   |
 |   J. Chem. Phys. 119(17), pp.8842-8848 (2003).                |
 |                                                               |
 |  "Total-energy calculations on a real space grid with         |
 |   localized functions and a plane-wave basis".                |
 |   A. A. Mostofi, C.-K. Skylaris, P. D. Haynes, M. C. Payne.   |
 |   Comput. Phys. Commun. 147, pp.788-802 (2002).               |
 |                                                               |
 |  "Accurate kinetic energy evaluation in electronic structure  |
 |   calculations with localized functions on real space grids"  |
 |   C.-K. Skylaris, A. A. Mostofi, P. D. Haynes, C. J. Pickard, |
 |   M. C. Payne.                                                |
 |   Comput. Phys. Commun. 140, pp.315-322 (2001).               |
 |                                                               |
 +---------------------------------------------------------------+

Job started: 27-05-2011 23:54 (+0100)

Running on     4 processors.

Reading parameters from file "hchain.dat" ...... done
Reading geometry and species blocks from file "hchain.dat" ...    
  PSINC grid spacing along a1 set to   0.500000000000a0 from input file.
  PSINC grid spacing along a2 set to   0.500000000000a0 from input file.
  PSINC grid spacing along a3 set to   0.500000000000a0 from input file.
... done
-------------------------------------------------------------------------------
---------------------------- RUN-TIME PARAMETERS ------------------------------
-------------------------------------------------------------------------------
task                       : SINGLEPOINT *! Type of calculation (String)        
cutoffenergy               : 20.00000000000000       hartree *! Plane wave kine 
kernelcutoff               : 1000.000000000000 *! Density kernel radius in Bohr 
xcfunctional               : LDA *! Exchange-correlation functional (String)    
libxcxfuncid               : 0 *! Functional identifier for which exchange func 
libxccfuncid               : 0 *! Functional identifier for which correlation f 
charge                     : 0.000000000000000 *! The total charge of the syste 
spin                       : 20 *! Total spin of system (Integer)               
spinpolarized              : F *! Switch for spin polarization (Boolean)        
spinpolarised              : F *! Switch for spin polarisation (Boolean)        
constantefield             : 0.0 0.0 0.0 *! Cartesian coordinates of constant e 
fftboxpref                 : 45 45 45 *! Preferred FFT box dimensions (String)  
ppdnpoints                 : 0 0 0 *! PPD edge length in grid points for each l 
psincspacing               : 0.5 0.5 0.5 *! PSINC grid spacing in atomic units  
oldinput                   : F *! Read old-format input file (Boolean)          
develcode                  : *! For development code only (String)              
nnho                       : F *! Initialise NGWFs to nonorthogonal natural hyb 
ngwfhalo                   : -1.000000000000000 *! Halo extension to NGWF radii 
nonscforces                : F *! Include non self-consistent forces due to NGW 
maxitpalsermano            : 50 *! Maximum number of iterations for Palser-Mano 
maxitpen                   : 3 *! Max number of penalty functional iterations ( 
penparam                   : 4.000000000000000 *! Penalty functional parameter  
minitlnv                   : 4 *! Min number of LNV iterations (Integer)        
maxitlnv                   : 4 *! Max number of LNV iterations (Integer)        
maxitlnvcoarse             : 0 *! Max number of low-accuracy LNV iterations (In 
lnvthresholdorig           : 1.0000000000000001E-009 *! LNV convergence thresho 
lnvcgtype                  : LNV_FLETCHER *! Type of CG coefficient for LNV den 
lnvcgmaxstep               : 3.000000000000000 *! Maximum length of trial step  
exactlnv                   : T *! Use original LNV algorithm (Boolean)          
oldlnv                     : F *! Use LNV algorithm backwards compatible pre De 
lnvchecktrialsteps         : F *! Check stability of kernel at each trial step  
kerfix                     : 1 *! Density kernel fixing approach (Integer)      
maxitkernelfix             : 3 *! Maximum # iterations of Penalty Functional id 
initialdensrealspace       : F *! Construct initial density in real space from  
kerneldiis                 : F *! Use kernel DIIS in the inner loop (Boolean)   
kerneldiistype             : P *! Density mixing method (String)                
kerneldiismax              : 10 *! Max number of kernels saved during kernel DI 
kerneldiismaxit            : 25 *! Max number of kernel DIIS iterations (Intege 
kerneldiisthres            : 1.0000000000000001E-009 *! Density mixing converge 
kerneldiisliter            : 5 *! Number of linear mixing iterations (Integer)  
kerneldiiscin              : 0.9000000000000000 *! Coefficient for the input ke 
kerneldiiscriteria         : 1000 *! Density mixing convergence criteria (Strin 
maxitngwfcg                : 30 *! Max number of NGWF conjugate gradients (CG)  
ngwfcgtype                 : NGWF_FLETCHER *! Type of CG coefficient for NGWF o 
ngwfcgmaxstep              : 4.000000000000000 *! Maximum length of trial step  
eleccgmax                  : 5 *! Number of NGWF iterations to reset CG (Intege 
precondscheme              : TETER *! Recip-space preconditioning scheme (Strin 
kzero                      : 3.000000000000000 *! KE preconditioning parameter  
rprecond                   : 2.000000000000000 *! Radial cut-off for real-space 
precondrecip               : T *! Recip-space KE preconditioning (Boolean)      
precondreal                : F *! Real-space KE preconditioning (Boolean)       
smoothscheme               : NONE *! Smoothing scheme for the NGWF gradients at 
rsmooth                    : 1.500000000000000       bohr *! Radius of the unsh 
ksmooth                    : 5.000000000000000 *! Characteristic wavelength of  
occmix                     : 0.2500000000000000 *! Mix fraction of occupancy pr 
kernelupdate               : F *! Update density kernel during NGWF line search 
kernelchristoffelupdate    : F *! Update density kernel during NGWF line search 
maxithotelling             : 50 *! Number of Hotelling iteration per NGWF chang 
maxresidhotelling          : 9.9999999999999998E-013 *! Max allowed value in Ho 
maxitngwfdiis              : 0 *! Max number of NGWF DIIS steps (Integer)       
ngwfdiissize               : 4 *! Max size of the DIIS iterative subspace (Inte 
ngwfdiisreset              : 8 *! Max number of iteration for the resetting of  
ngwfdiismaxstep            : 2.000000000000000 *! Max length of trial step for  
ngwfthresholdorig          : 1.9999999999999999E-006 *! NGWF convergence thresh 
elecenergytol              : -1.0000000000000000E-003  hartree *! Tolerance on  
elecforcetol               : -1.0000000000000000E-003  ha/bohr *! Tolerance on  
ngwfmaxgrad                : -2.0000000000000002E-005 *! Maximum permissible va 
deltaeconv                 : T *! Use consecutive energy gains as a criterion f 
locpotintbatchsize         : 10 *! Size of NGWF in fftbox batch for locpot inte 
kineticintbatchsize        : 10 *! Size of NGWF in fftbox batch for kinetic int 
densitybatchsize           : 10 *! Size of NGWF in fftbox batch for charge dens 
ngwfgradbatchsize          : 10 *! Size of NGWF in fftbox batch for NGWF gradie 
densethreshold             : 0.4000000000000000 *! Threshold for matrix segment 
commsgroupsize             : 4 *! Number of nodes in a group (determines comms  
ovlpfornonlocal            : F *! Overlap sparsity for nonlocal (Boolean)       
usespacefillingcurve       : T *! Re-arrange atoms according to space-filling c 
corehamdenskernguess       : T *! Initial guess for density kernel from core Ha 
checkatoms                 : T *! Check atoms on top of each other (Boolean)    
locpotscheme               : FULL *! Scheme for evaluating local potential matr 
smoothprojectors           : -0.4000000000000000 *! Halfwidth of Gaussian filte 
smoothlocpspot             : -0.4000000000000000 *! Halfwidth of Gaussian filte 
oddpsincgrid               : F *! Force odd number of points in simcell psinc g 
evenpsincgrid              : F *! Force even number of points in simcell psinc  
realspaceprojectors        : F *! Whether to evaluate and store projectors in r 
outputdetail               : VERBOSE *! Level of output detail (String)         
pawoutputdetail            : DEFAULT *! Level of output detail for PAW: BRIEF,  
timingslevel               : 1 *! Level of timings output: 0(none) 1(nodes summ 
writeparams                : T *! Output runtime parameters at startup (Boolean 
writeforces                : F *! Write ionic forces (Boolean)                  
writepositions             : T *! Write ionic positions each geometry or MD ste 
writexyz                   : F *! Output coordinates in .xyz file (Boolean)     
printqc                    : T *! Print Quality Control information (Boolean)   
cubeformat                 : F *! Allow .cube format for plot outputs (Boolean) 
dxformat                   : F *! Allow .dx format for plot outputs (Boolean)   
dxformatcoarse             : F *! Output only points on the coarse grid (Boolea 
dxformatdigits             : 7 *! Number of significant digits in .dx output (I 
grdformat                  : T *! Allow .grd format for plot outputs (Boolean)  
writedensityplot           : F *! Write the charge density in plotting format ( 
writengwfplot              : F *! Write NGWFs in plotting format (Boolean)      
writengwfgradplot          : F *! Write NGWF Gradients in plotting format (Bool 
writengwfradial            : F *! Write NGWFs radial distributions (Boolean)    
writengwfgradradial        : F *! Write NGWFs gradients radial distributions (B 
writeradialstep            : 5.0000000000000001E-003  bohr *! Define the grid s 
writeradialsmear           : 1.0000000000000000E-002  bohr *! Define the gaussi 
readdenskern               : F *! Read density kernel restart information (Bool 
writedenskern              : F *! Write density kernel restart information (Boo 
readtightboxngwfs          : F *! Read in universal tightbox NGWFs restart info 
writetightboxngwfs         : F *! Write in universal tightbox NGWFs restart inf 
writeconvergeddkngwfs      : F *! Only write Density Kernel and NGWFs upon conv 
readswngwfs                : F *! Read NGWFs restart information in spherical w 
writeswngwfs               : F *! Write NGWFs restart information in spherical  
writemaxl                  : 3 *! Maximum angular momentum number when writing  
readmaxl                   : 3 *! Maximum angular momentum number when reading  
extransw                   : 0 *! Maximum number of zeros of the sph Bessel fun 
paw                        : F *! Uses a PAW construction to find correct core  
finegridscale              : 2.000000000000000 *! Ratio of size of fine grid to 
dblgridscale               : 2.000000000000000 *! Ratio of charge density / pot 
augfuncsrecip              : T *! Construct Augmentation functions in recip spa 
dispersion                 : 0 *! Select dispersion correction (Integer)        
vdwdcoeff                  : -1.000000000000000 *! Replacement VDW damping coef 
hubbardmaxiter             : 0 *! Maximum number of DFT+U projector optimisatio 
hubbardenergytol           : 1.0000000000000000E-008  hartree *! Energy toleran 
hubbardconvwin             : 2 *! Energy convergence window when using DFT+U pr 
hubbardprojmixing          : 0.000000000000000 *! Proportion of old Hubbard pro 
hubbardfunctional          : 1 *! DFT+U energy functional to use (Integer)      
hubbardtensorcorr          : 1 *! DFT+U projector tensorial correction to use ( 
hubbardngwfspinthreshold   : 2.0000000000000002E-005 *! NGWF RMS  gradient thre 
coulombcutoffradius        : 0.000000000000000 *! Radius of sphere or cylinder  
coulombcutofflength        : 0.000000000000000 *! Length of cylinder or width o 
coulombcutofftype          : NONE *! Type of cutoff coulomb interaction: NONE,  
coulombcutoffwriteint      : F *! Write real-space cutoff Coulomb interaction s 
pbccorrectioncutoff        : 0.000000000000000 *! alpha*L cutoff parameter for  
doproperties               : T *! Allow calculation of properties (Boolean)     
numeigenvalues             : 20 *! Number of energy and occupancy eigenvalues t 
homodensplot               : -1 *! Number of squared MOs to plot from HOMO and  
lumodensplot               : -1 *! Number of squared MOs to plot from LUMO and  
homoplot                   : -1 *! Number of MOs to plot from HOMO and lower (I 
lumoplot                   : -1 *! Number of MOs to plot from LUMO and higher ( 
dossmear                   : -3.6748994224532205E-002  hartree *! Half width of 
ldossmear                  : 3.6749324387552883E-003  hartree *! Lorentzian bro 
popncalculate              : F *! Allow population analysis (Boolean)           
popnbondcutoff             : 5.669178403750646       bohr *! Bond length cutoff 
ngwfanalysis               : F *! Perform NGWF analysis (Boolean)               
polarisationcalculate      : F *! Allow calculation of polarisation (Boolean)   
spreadcalculate            : F *! Calculate spread of NGWFs (Boolean)           
geommodulusest             : 1.7000000000000001E-002  ha/bohr**3 *! The estimat 
geomfrequencyest           : 7.6000000000000000E-003  hartree *! The estimated  
geomenergytol              : 9.9999999999999995E-007  hartree *! Geometry optim 
geomforcetol               : 2.0000000000000000E-003  ha/bohr *! Geometry optim 
geomdisptol                : 5.0000000000000001E-003  bohr *! Geometry optimiza 
geommaxiter                : 50 *! Maximum number of geometry optimization iter 
geomconvergencewin         : 2 *! Geometry optimization convergence tolerance w 
geomcontinuation           : F *! Read information for continuation of a previo 
geombackupiter             : 1 *! Number of geometry optimisation iterations be 
geomresetdkngwfsiter       : 6 *! Number of geom iterations between resets of k 
geomreusedkngwfs           : T *! Re-use density kernel and NGWFs during geomet 
geomprintinvhessian        : F *! Write inverse Hessian to standard output (Boo 
geommethod                 : CARTESIAN *! Method for geometry optimization (Str 
tssearchmethod             : LSTQST *! Specifies method to be used for TS searc 
tssearchlstqstprotocol     : LSTMAXIMUM *! Specifies LSTQST protocol (String)   
tssearchqstmaxiter         : 5 *! Specifies maximum number of QST steps (Intege 
tssearchcgmaxiter          : 20 *! Specifies maximum number of CG steps (Intege 
tssearchforcetol           : 5.0000000000000001E-003  ha/bohr *! Force toleranc 
tssearchdisptol            : 1.0000000000000000E-002  bohr *! Displacement tole 
mddeltat                   : 40.00000000000000       aut *! Molecular dynamics  
mdnumiter                  : 100 *! Maximum number of molecular dynamics iterat 
mdtemperature              : 9.5000000000000000E-004  hartree *! Temperature fo 
mdalgorithm                : LEAPFROGVERLET *! Integration algorithm for molecu 
mdthermostat               : NONE *! Thermostat for molecular dynamics (String) 
mdcollisionfrequency       : 0.1520000000000000       hartree *! Collision freq 
mixdenskern                : 0 *! Number of coefficients used to build new gues 
mixngwfs                   : 0 *! Number of coefficients used to build new gues 
condreaddenskern           : F *! Read in conduction density kernel (Boolean)   
condreadtightboxngwfs      : F *! Read in universal tightbox conduction NGWFs ( 
condfixedshift             : F *! Fixed projected conduction Hamiltonian shift  
condcalcmaxeigen           : T *! Calculate maximum conduction Hamiltonian eige 
condnumstates              : 0 *! Number of conduction states to be optimised f 
condkernelcutoff           : 1000.000000000000 *! Conduction density kernel rad 
condinitshift              : 0.000000000000000 *! Initial shifting factor for p 
condshiftbuffer            : 0.1000000000000000 *! Additional buffer for updati 
condnumextrastates         : 0 *! Number of extra conduction states for initial 
condnumextraits            : 0 *! Number of NGWF iterations with extra conducti 
condplotjointorbitals      : T *! Plot orbitals in the joint basis following a  
condplotvcorbitals         : T *! Plot orbitals in the val and cond NGWF basis  
condcalcopticalspectra     : F *! Calculate matrix elements for optical absorpt 
condspeccalcmommatels      : T *! Calculate momentum matrix elements (default t 
condspeccalcnonloccomm     : T *! Calculate nonlocal commutator for momentum ma 
condspeccontderiv          : T *! Calculate non-local commuator using continuou 
condspecnonloccommshift    : 1.0000000000000000E-004 *! Finite difference shift 
bskpointpathspacing        : 1.4999999999999999E-002  1/bohr *! K-point spacing 
bsnumeigenvalues           : 20 *! Num of energy and occ. eigenvalues to print  
bsunfold                   : 1 1 20 *! Number of times to unfold Brillouin zone 
bsmethod                   : TB *! Method to use: 'KP' or 'TB' (String)         
dotddft                    : F *! Allow Time-Dependent DFT calculation (Boolean 
tddftmaximumenergy         : 1.000000000000000       hartree *! Desired maximum 
tddftresolution            : 1.0000000000000000E-003  hartree *! Desired resolu 
tddftpropagationmethod     : CRANKNICHOLSON *! Method used to integrate von Neu 
tddftsparsitylevel         : 0 *! Matrix sparsity when computing propagators e. 
tddfttammdancoff           : F *! Invoke Tamm-Dancoff decoupling approximation  
tddftdipolekickstrength    : 0.0 0.0 0.0 *! Maximum allowed phase shift in TDDF 
tddftxcfunctional          : LDA *! Exchange-correlation functional for TDDFT ( 
tddfthamiltonianmixing     : 0 *! Order of polynomial extrapolation to H(t + ha 
tddftdamping               : 0.000000000000000       hartree *! Energy smearing 
tddftenforcedidempotency   : F *! Project out at each timestep that part of cha 
tddftmaxithotelling        : 50 *! Number of Hotelling iteration per propagatio 
tddftmaxresidhotelling     : 1.0000000000000001E-018 *! Max allowed value in Ho 
tddftinvoverlapexact       : T *! Renew inverse overlap with O N^3 algorithm be 
isimplicitsolvent          : F *! Use implicit solvent? (Boolean)               
issmearedionrep            : F *! Implicit solvent: use smeared ions for electr 
isincludecavitation        : F *! Implicit solvent: include cavitation energy ( 
isdensitythreshold         : 7.7999999999999999E-004 *! Implicit solvent: rho_0 
issolvationbeta            : 1.300000000000000 *! Implicit solvent: beta parame 
isbulkpermittivity         : 1.000000000000000 *! Implicit solvent: eps_inf par 
ismultigriddefecterrortol  : 1.0000000000000000E-002 *! Implicit solvent: stop  
ismultigriderrortol        : 1.0000000000000001E-005 *! Implicit solvent: stop  
issmearedionwidth          : 0.8000000000000000 *! Implicit solvent: Width of G 
issurfacethickness         : 2.0000000000000001E-004 *! Implicit solvent: thick 
issolventsurfacetension    : 4.7623999999999997E-005  ha/bohr**2 *! Implicit so 
ismultigridmaxiters        : 100 *! Implicit solvent: max number of iterations  
ismultigridnlevels         : 4 *! Implicit solvent: number of levels in multigr 
isdiscretizationorder      : 8 *! Implicit solvent: discretization order (2nd,  
isbccoarseness             : 5 *! Implicit solvent: controls boundary condition 
isbcsurfacecoarseness      : 1 *! Implicit solvent: controls boundary condition 
ischecksolvenergygrad      : F *! Implicit solvent: sanity check the energy gra 
issolvationmethod          : DIRECT *! Implicit solvent: direct or corrective m 
isdielectricmodel          : FIX_INITIAL *! Implicit solvent: how the cavity is 
isdielectricfunction       : FGF *! Implicit solvent: how the cavity is determi 
issolvationoutputdetail    : NONE *! Implicit solvent: controls extra output (S 
openbcionion               : F *! Force open BCs in ion-ion energy (Boolean)    
openbchartree              : F *! Force open BCs in Hartree potential (Boolean) 
openbcpspot                : F *! Force open BCs in local pseudopotential (Bool 
openbcpspotfinetunenptsx   : 100000 *! Open BCs in local pseudo, npts_x paramet 
openbcpspotfinetunealpha   : 0.3000000000000000 *! Open BCs in local pseudo, al 
openbcpspotfinetunef       : -1 *! Open BCs in local pseudo, fineness parameter 
%block bskpointpath        : *! K-point path for bandstructure calculation (Blo 
0.0 0.0 -0.5                                                                    
0.0 0.0  0.5                                                                    
%endblock bskpointpath     : *! K-point path for bandstructure calculation (Blo 
%block positionsabs        : *! Cartesian positions for each atom (Block)       
H 0.0 0.0  0.0                                                                  
H 0.0 0.0  2.0                                                                  
H 0.0 0.0  4.0                                                                  
H 0.0 0.0  6.0                                                                  
H 0.0 0.0  8.0                                                                  
H 0.0 0.0 10.0                                                                  
H 0.0 0.0 12.0                                                                  
H 0.0 0.0 14.0                                                                  
H 0.0 0.0 16.0                                                                  
H 0.0 0.0 18.0                                                                  
H 0.0 0.0 20.0                                                                  
H 0.0 0.0 22.0                                                                  
H 0.0 0.0 24.0                                                                  
H 0.0 0.0 26.0                                                                  
H 0.0 0.0 28.0                                                                  
H 0.0 0.0 30.0                                                                  
H 0.0 0.0 32.0                                                                  
H 0.0 0.0 34.0                                                                  
H 0.0 0.0 36.0                                                                  
H 0.0 0.0 38.0                                                                  
%endblock positionsabs     : *! Cartesian positions for each atom (Block)       
%block latticecart         : *! The simulation cell lattice vectors (Block)     
40.0  0.0  0.0                                                                  
0.0 40.0  0.0                                                                   
0.0  0.0 40.0                                                                   
%endblock latticecart      : *! The simulation cell lattice vectors (Block)     
%block species             : *! Species information (symbol, atomic number, num 
H H 1 1 5.9                                                                     
%endblock species          : *! Species information (symbol, atomic number, num 
%block speciespot          : *! Pseudopotential name for each species (Block)   
H     "../../pseudo/hydrogen_coul.recpot"                                       
%endblock speciespot       : *! Pseudopotential name for each species (Block)   
%block speciesatomicset    : *! Atomic set name for each species (Block)        
H AUTO                                                                          
%endblock speciesatomicset : *! Atomic set name for each species (Block)        
-------------------------------------------------------------------------------
-------------------------------------------------------------------------------

<<<<<<<<<<<<<<<<<<<<<<<<< Pseudopotential information >>>>>>>>>>>>>>>>>>>>>>>>>
File: ../../pseudo/hydrogen_coul.recpot [ 2001 points up to Gmax=  52.9 (1/bohr)]
  Atomic number:  1;  ionic charge:  1.000000
    Local potential
<<<<<<<<<<<<<<<<<<<<<<<<<<<<<<<<<<<<<<< >>>>>>>>>>>>>>>>>>>>>>>>>>>>>>>>>>>>>>>

------------------------- Atom counting information ---------------------------
Symbol    Natoms    Nngwfs    Nprojs
  H         20        20         0
.......   ......    ......    ......
Totals:     20        20         0
-------------------------------------------------------------------------------

Determining parallel strategy ...
... using space-filling curve
... NGWF load balancing: max      5;  min      5;  average      5
... done

Calculating Ewald energy ...
              Ewald: real-space energy =      16.019587
        Ewald: reciprocal-space energy =       2.338882
         Ewald: (sum_charge)**2 Energy =       1.842016
         Ewald: (sum_charge**2) Energy =       0.823774
                          Ewald Energy =      15.692678
... FFT-box specified

Basis initialisation ...
... Atom positions lie inside simulation cell
... NGWF spheres initialised
... NGWF tight boxes initialised
... NGWF basis size (local,global):       6764     27056
... Tight-boxes gathered
... done

============================== PSINC grid sizes ================================
                      Simulation cell:   80 x  80 x  80
                              FFT-box:   75 x  75 x  75
                                  PPD:    5 x   5 x   5
Grid space d1=  0.500000000000a0 (KE cutoff=  30.38533Eh = 826.82697eV)
Grid space d2=  0.500000000000a0 (KE cutoff=  30.38533Eh = 826.82697eV)
Grid space d3=  0.500000000000a0 (KE cutoff=  30.38533Eh = 826.82697eV)
================================================================================

********************** Fourier parallelisation information *********************
       Coarse grid (whole simulation cell) dimensions:     80    80    80

                 Real-space grid ('12' slabs):
                   Node    0:   20 (from    1 to   20)
                   Node    1:   20 (from   21 to   40)
                   Node    2:   20 (from   41 to   60)
                   Node    3:   20 (from   61 to   80)

                 Reciprocal-space grid ('23' slabs):
                   Node    0:   10 (from    1 to   10)
                   Node    1:   10 (from   11 to   20)
                   Node    2:   11 (from   21 to   31)
                   Node    3:   10 (from   32 to   41)
********************************************************************************

********************** Fourier parallelisation information *********************
       Double grid (whole simulation cell) dimensions:    160   160   160

                 Real-space grid ('12' slabs):
                   Node    0:   40 (from    1 to   40)
                   Node    1:   40 (from   41 to   80)
                   Node    2:   40 (from   81 to  120)
                   Node    3:   40 (from  121 to  160)

                 Reciprocal-space grid ('23' slabs):
                   Node    0:   20 (from    1 to   20)
                   Node    1:   20 (from   21 to   40)
                   Node    2:   21 (from   41 to   61)
                   Node    3:   20 (from   62 to   81)
********************************************************************************

=========================== Sparse matrix information ==========================
                        Overlap matrix filling:  55.00%
                        Density kernel filling: 100.00%
                    Hamiltonian matrix filling:  55.00%
                  NGWF diagonal matrix filling:   5.00%
                             KS matrix filling: 100.00% 
                           KSKS matrix filling: 100.00% 
================================================================================

Sparse matrix initialisation ... done
NGWF initialisation ...... done

============ Calculation of NGWF S^-1 using Hotelling algorithm ================ 
         Iteration  |  Frobenius norm and Maximum abs value    (of I-S*S_n^-1)   
               1       0.36365576E+01     0.73935466E+00
               2       0.34248516E+01     0.66122756E+00
               3       0.32131474E+01     0.58648041E+00
               4       0.29985953E+01     0.51621582E+00
               5       0.27752052E+01     0.44957869E+00
               6       0.25342558E+01     0.38508819E+00
               7       0.22637964E+01     0.32112261E+00
               8       0.19489065E+01     0.25623871E+00
               9       0.15715550E+01     0.18991182E+00
              10       0.11264680E+01     0.12348925E+00
              11       0.64568922E+00     0.63446510E-01
              12       0.24071905E+00     0.20845728E-01
              13       0.38567544E-01     0.28972831E-02
              14       0.12419159E-02     0.74372774E-04
              15       0.15089701E-05     0.77117762E-07
              16       0.22766167E-11     0.11568524E-12
================================================================================
Up spin density kernel initialisation ... 
======= Optimisation of K by Palser-Manolopoulos canonical purification ======== 
         Iteration  |  Band structure energy |    c_n   
               1          -1.55923741126703    1.0000000
               2          -1.55923741126703    1.0000000
Final occupancy bounds: [    1.00000000000000:    1.00000000000000]
Closest occupancy to 0.5:     1.00000000000000
================================================================================
... done
Down spin density kernel initialisation ...... done
   Initial electron number for spin 1:      20.00000000
   Initial electron number for spin 2:       0.00000000
     Final electron number for spin 1:      20.00000000
     Final electron number for spin 2:       0.00000000
................................................................................
<<<<<<<<<<<<<<<< Penalty functional density kernel optimisation >>>>>>>>>>>>>>>>
~~~~~~~~~~~~~~~~~~~~~~~~~~~~~~~~~~~~~~~~~~~~~~~~~~~~~~~~~~~~~~~~~~~~~~~~~~~~~~~~
iter|       energy      |   rms grad  |  commutator |LScoef|CGcoef|      Ne    |
      Q0=E0+P0:      -5.550206520412=     -5.550206520412+      0.000000000000
    Trial step:       1.000000000000
            G0:     -12.127719626118
WARNING: minimum value of charge density for spin 2: -0.1715
      Q1=E1+P1:     184.040994984671=    -18.472009197102+    202.513004181774
Quadratic term:    -201.718921131201
   Linear term:     -12.127719626118
  Optimal step:       0.030060937165
 Predicted min:      -5.732491829228
    !!! Quadratic minimum step length accepted !!!
 1     -5.55020652041229 0.17412437815 0.00000000000 0.0301  0.000   20.00000000
WARNING: minimum value of charge density for spin 2: -0.0052
      Q0=E0+P0:      -5.897832745405=     -5.944036267457+      0.046203522052
    Trial step:       0.173380901961
            G0:      -0.014704505322
WARNING: minimum value of charge density for spin 2: -0.0048
      Q1=E1+P1:      -5.896618805137=     -5.943268043012+      0.046649237875
Quadratic term:      -0.003763420664
   Linear term:      -0.002549480396
  Optimal step:       0.058727318836
 Predicted min:      -5.898264523492
    !!! Quadratic minimum step length accepted !!!
 2     -5.94403626745734 0.12876920161 0.00000000016 0.0587 -0.738   20.00000000
WARNING: minimum value of charge density for spin 2: -0.0050
      Q0=E0+P0:      -5.897498233185=     -5.943753385268+      0.046255152084
    Trial step:       0.100906865523
            G0:      -6.671317104893
WARNING: minimum value of charge density for spin 2: -0.0172
      Q1=E1+P1:      -6.290643720829=     -6.917983404235+      0.627339683406
Quadratic term:      -0.280036210318
   Linear term:      -0.673181697962
  Optimal step:       0.121285484815
 Predicted min:      -6.302065197897
    !!! Quadratic minimum step length accepted !!!
 3     -5.94375338526845 0.12884041013 0.00000000015 0.1213  2.410   20.00000000
WARNING: minimum value of charge density for spin 2: -0.0196

======================== Penalty functional minimisation =======================
   Final total energy     :      -7.114470320774
   Final penalty energy   :       0.839185170687
   RMS occupancy error    :       0.102420
   Occupancy bounds spin 1: [ 0.862, 1.124]
   Occupancy bounds spin 2: [-0.198, 0.071]
================================================================================

Finished density kernel iterations (   3)

################################################################################
########################### NGWF CG iteration  001 #############################
################################################################################
****** Reciprocal space K.E. preconditioning with k_zero =  3.0000 a0^-1 *******
   Initial electron number for spin 1:      20.66151091
   Initial electron number for spin 2:      -0.66151091
     Final electron number for spin 1:      20.00000000
     Final electron number for spin 2:       0.00000000

=================== Penalty functional idempotency correction ==================
 RMS occupancy error at iteration   1:  0.088021 (step -0.4620 Ne1=     20.0000)
                                                               Ne2=      0.0000
 RMS occupancy error at iteration   2:  0.020903 (step -0.5411 Ne1=     20.0000)
                                                               Ne2=      0.0000
 RMS occupancy error at iteration   3:  0.001664 (step -0.5031 Ne1=     20.0000)
                                                               Ne2=      0.0000
            Final RMS occupancy error   :  0.000014 (Ne1=     20.0000)
                                                     Ne2=      0.0000
            Final occupancy bounds spin 1: [  1.000,  1.000]
            Final occupancy bounds spin 2: [  0.000,  0.000]
================================================================================

................................................................................
<<<<<<<<<<<<<< LNV (Original version) density kernel optimisation >>>>>>>>>>>>>>
~~~~~~~~~~~~~~~~~~~~~~~~~~~~~~~~~~~~~~~~~~~~~~~~~~~~~~~~~~~~~~~~~~~~~~~~~~~~~~~~
iter|       energy      |  rms DeltaK |  commutator |LScoef|CGcoef|      Ne    |
      ideal mu1:      -0.123290092479
      ideal mu2:       0.007035486090
             Q0:      -5.550206529827
             G0:      -0.000000158336
   RMS gradient:       0.000028136818
     Trial step:       0.500000000000
             Q1:      -5.550206742216
 Quadratic coef:      -0.000000133221
 Linear coef   :      -0.000000079168
         Quadratic fit unsuccessful: proceeding to cubic fit
             Q2:      -5.550207220954
  Cubic LS coeff:    1928.950904336341
Predicted energy:      -6.211450475392
WARNING in lnv_denskernel_optimise_cg: setting cubic step to safe value
    Initial Ne1:      19.99992366
    Initial Ne2:       0.00004267
      Final Ne1:      20.00000000
      Final Ne2:       0.00000000

=================== Penalty functional idempotency correction ==================
 RMS occupancy error at iteration   1:  0.000025 (step -0.5002 Ne1=     20.0000)
                                                               Ne2=      0.0000
            Final RMS occupancy error   :  0.000000 (Ne1=     20.0000)
                                                     Ne2=      0.0000
            Final occupancy bounds spin 1: [  1.000,  1.000]
            Final occupancy bounds spin 2: [  0.000,  0.000]
================================================================================

 1     -5.55020652982682 0.00000000000 0.00000000000 0.1500  0.000   20.00000000
      ideal mu1:      -0.123290092301
      ideal mu2:       0.000000000000
 2     -5.55020652041057 0.00004399527 0.00000000000

                 ..............................................
                 | RMS LNV GRADIENT=    0.00000000655300      |
                 | LNV density kernel optimisation converged! |
                 ~~~~~~~~~~~~~~~~~~~~~~~~~~~~~~~~~~~~~~~~~~~~~~

           ........................................................
           | *** NGWF optimisation not converged ***              |
           | RMS NGWF gradient =    0.00207678778120              |
           | Criteria not satisfied:                              |
           | -> RMS NGWF gradient higher than set threshold.      |
           ========================================================

------------------------------- NGWF line search -------------------------------
============ Calculation of NGWF S^-1 using Hotelling algorithm ================ 
         Iteration  |  Frobenius norm and Maximum abs value    (of I-S*S_n^-1)   
               1       0.46180214E-02     0.49646165E-03
               2       0.12056622E-04     0.10663062E-05
               3       0.12049551E-09     0.72697404E-11
               4       0.61558474E-14     0.18388069E-14
================================================================================
============ Calculation of NGWF S^-1 using Hotelling algorithm ================ 
         Iteration  |  Frobenius norm and Maximum abs value    (of I-S*S_n^-1)   
               1       0.56941590E-01     0.62963065E-02
               2       0.13721334E-02     0.16211725E-03
               3       0.14645918E-05     0.94137519E-07
               4       0.21137330E-11     0.10880186E-12
================================================================================
RMS gradient                =       0.00207678778120
Trial step length           =               0.122474
Gradient along search dir.  =         -0.59367373455
Functional at step 0        =      -5.55020652041057
Functional at step 1        =      -5.62021114428532
Functional predicted        =      -6.03876612896873
Selected quadratic step     =               1.645886
Conjugate gradients coeff.  =               0.000000
--------------------------- NGWF line search finished --------------------------
                                               

################################################################################
########################### NGWF CG iteration  002 #############################
################################################################################
****** Reciprocal space K.E. preconditioning with k_zero =  3.0000 a0^-1 *******
   Initial electron number for spin 1:      20.05863859
   Initial electron number for spin 2:       0.00000000
     Final electron number for spin 1:      20.00000000
     Final electron number for spin 2:       0.00000000

=================== Penalty functional idempotency correction ==================
 RMS occupancy error at iteration   1:  0.009178 (step -0.5301 Ne1=     20.0000)
                                                               Ne2=      0.0000
 RMS occupancy error at iteration   2:  0.000534 (step -0.5016 Ne1=     20.0000)
                                                               Ne2=      0.0000
 RMS occupancy error at iteration   3:  0.000001 (step -0.5000 Ne1=     20.0000)
                                                               Ne2=      0.0000
            Final RMS occupancy error   :  0.000000 (Ne1=     20.0000)
                                                     Ne2=      0.0000
            Final occupancy bounds spin 1: [  1.000,  1.000]
            Final occupancy bounds spin 2: [  0.000,  0.000]
================================================================================

................................................................................
<<<<<<<<<<<<<< LNV (Original version) density kernel optimisation >>>>>>>>>>>>>>
~~~~~~~~~~~~~~~~~~~~~~~~~~~~~~~~~~~~~~~~~~~~~~~~~~~~~~~~~~~~~~~~~~~~~~~~~~~~~~~~
iter|       energy      |  rms DeltaK |  commutator |LScoef|CGcoef|      Ne    |
      ideal mu1:      -0.133315200216
      ideal mu2:       0.000000000000
 1     -6.02694616749801 0.00000000000 0.00000000000

                 ..............................................
                 | RMS LNV GRADIENT=    0.00000000003173      |
                 | LNV density kernel optimisation converged! |
                 ~~~~~~~~~~~~~~~~~~~~~~~~~~~~~~~~~~~~~~~~~~~~~~

           ........................................................
           | *** NGWF optimisation not converged ***              |
           | RMS NGWF gradient =    0.00085266561493              |
           | Criteria not satisfied:                              |
           | -> RMS NGWF gradient higher than set threshold.      |
           ========================================================

------------------------------- NGWF line search -------------------------------
============ Calculation of NGWF S^-1 using Hotelling algorithm ================ 
         Iteration  |  Frobenius norm and Maximum abs value    (of I-S*S_n^-1)   
               1       0.27128812E-01     0.31175852E-02
               2       0.33384278E-03     0.36798625E-04
               3       0.86814624E-07     0.55725512E-08
               4       0.89480150E-14     0.18873791E-14
================================================================================
============ Calculation of NGWF S^-1 using Hotelling algorithm ================ 
         Iteration  |  Frobenius norm and Maximum abs value    (of I-S*S_n^-1)   
               1       0.11841808E+00     0.13234734E-01
               2       0.59327424E-02     0.70114216E-03
               3       0.25790673E-04     0.17598719E-05
               4       0.64463786E-09     0.33259284E-10
               5       0.41390840E-14     0.13322676E-14
================================================================================
RMS gradient                =       0.00085266561493
Trial step length           =               0.448976
Gradient along search dir.  =         -0.09740200270
Functional at step 0        =      -6.02694616749801
Functional at step 1        =      -6.06655073376649
Functional predicted        =      -6.14280630545088
Selected quadratic step     =               2.379009
Conjugate gradients coeff.  =               0.168567
--------------------------- NGWF line search finished --------------------------
                                               

################################################################################
########################### NGWF CG iteration  003 #############################
################################################################################
****** Reciprocal space K.E. preconditioning with k_zero =  3.0000 a0^-1 *******
   Initial electron number for spin 1:      20.18008671
   Initial electron number for spin 2:       0.00000000
     Final electron number for spin 1:      20.00000000
     Final electron number for spin 2:       0.00000000

=================== Penalty functional idempotency correction ==================
 RMS occupancy error at iteration   1:  0.021151 (step -0.5494 Ne1=     20.0000)
                                                               Ne2=      0.0000
 RMS occupancy error at iteration   2:  0.003419 (step -0.5137 Ne1=     20.0000)
                                                               Ne2=      0.0000
 RMS occupancy error at iteration   3:  0.000064 (step -0.5001 Ne1=     20.0000)
                                                               Ne2=      0.0000
            Final RMS occupancy error   :  0.000000 (Ne1=     20.0000)
                                                     Ne2=      0.0000
            Final occupancy bounds spin 1: [  1.000,  1.000]
            Final occupancy bounds spin 2: [  0.000,  0.000]
================================================================================

................................................................................
<<<<<<<<<<<<<< LNV (Original version) density kernel optimisation >>>>>>>>>>>>>>
~~~~~~~~~~~~~~~~~~~~~~~~~~~~~~~~~~~~~~~~~~~~~~~~~~~~~~~~~~~~~~~~~~~~~~~~~~~~~~~~
iter|       energy      |  rms DeltaK |  commutator |LScoef|CGcoef|      Ne    |
      ideal mu1:      -0.129061581290
      ideal mu2:       0.000000000000
             Q0:      -6.117477122515
             G0:      -0.000000000001
   RMS gradient:       0.000000053913
     Trial step:       0.273861278753
             Q1:      -6.117477122516
 Quadratic coef:       0.000000000000
 Linear coef   :       0.000000000000
         Quadratic fit unsuccessful: proceeding to cubic fit
             Q2:      -6.117477122516
  Cubic LS coeff:       5.250582630272
Predicted energy:      -6.117477122536
WARNING in lnv_denskernel_optimise_cg: setting cubic step to safe value
    Initial Ne1:      19.99999968
    Initial Ne2:       0.00000000
      Final Ne1:      20.00000000
      Final Ne2:       0.00000000

=================== Penalty functional idempotency correction ==================
 RMS occupancy error at iteration   1:  0.000000 (step -0.5000 Ne1=     20.0000)
                                                               Ne2=      0.0000
            Final RMS occupancy error   :  0.000000 (Ne1=     20.0000)
                                                     Ne2=      0.0000
            Final occupancy bounds spin 1: [  1.000,  1.000]
            Final occupancy bounds spin 2: [  0.000,  0.000]
================================================================================

 1     -6.11747712251531 0.00000000000 0.00000000000 0.1500  0.000   20.00000000
      ideal mu1:      -0.129061581290
      ideal mu2:       0.000000000000
 2     -6.11747712251528 0.00000009330 0.00000000000

                 ..............................................
                 | RMS LNV GRADIENT=    0.00000000000007      |
                 | LNV density kernel optimisation converged! |
                 ~~~~~~~~~~~~~~~~~~~~~~~~~~~~~~~~~~~~~~~~~~~~~~

           ........................................................
           | *** NGWF optimisation not converged ***              |
           | RMS NGWF gradient =    0.00056384615486              |
           | Criteria not satisfied:                              |
           | -> RMS NGWF gradient higher than set threshold.      |
           ========================================================

------------------------------- NGWF line search -------------------------------
============ Calculation of NGWF S^-1 using Hotelling algorithm ================ 
         Iteration  |  Frobenius norm and Maximum abs value    (of I-S*S_n^-1)   
               1       0.47820394E-01     0.51786433E-02
               2       0.10784469E-02     0.11433953E-03
               3       0.97736263E-06     0.58152395E-07
               4       0.94901968E-12     0.49293902E-13
================================================================================
============ Calculation of NGWF S^-1 using Hotelling algorithm ================ 
         Iteration  |  Frobenius norm and Maximum abs value    (of I-S*S_n^-1)   
               1       0.21192930E-01     0.22695235E-02
               2       0.21072770E-03     0.22457019E-04
               3       0.37534650E-07     0.22203099E-08
               4       0.53811684E-14     0.12212453E-14
================================================================================
RMS gradient                =       0.00056384615486
Trial step length           =               1.033497
Gradient along search dir.  =         -0.03463883765
Functional at step 0        =      -6.11747712251528
Functional at step 1        =      -6.14083860752014
Functional predicted        =      -6.14323716512424
Selected quadratic step     =               1.487350
Conjugate gradients coeff.  =               0.437284
--------------------------- NGWF line search finished --------------------------
                                               

################################################################################
########################### NGWF CG iteration  004 #############################
################################################################################
****** Reciprocal space K.E. preconditioning with k_zero =  3.0000 a0^-1 *******
   Initial electron number for spin 1:      20.07097297
   Initial electron number for spin 2:       0.00000000
     Final electron number for spin 1:      20.00000000
     Final electron number for spin 2:       0.00000000

=================== Penalty functional idempotency correction ==================
 RMS occupancy error at iteration   1:  0.010307 (step -0.5387 Ne1=     20.0000)
                                                               Ne2=      0.0000
 RMS occupancy error at iteration   2:  0.000720 (step -0.5021 Ne1=     20.0000)
                                                               Ne2=      0.0000
 RMS occupancy error at iteration   3:  0.000002 (step -0.5000 Ne1=     20.0000)
                                                               Ne2=      0.0000
            Final RMS occupancy error   :  0.000000 (Ne1=     20.0000)
                                                     Ne2=      0.0000
            Final occupancy bounds spin 1: [  1.000,  1.000]
            Final occupancy bounds spin 2: [  0.000,  0.000]
================================================================================

................................................................................
<<<<<<<<<<<<<< LNV (Original version) density kernel optimisation >>>>>>>>>>>>>>
~~~~~~~~~~~~~~~~~~~~~~~~~~~~~~~~~~~~~~~~~~~~~~~~~~~~~~~~~~~~~~~~~~~~~~~~~~~~~~~~
iter|       energy      |  rms DeltaK |  commutator |LScoef|CGcoef|      Ne    |
      ideal mu1:      -0.129434103670
      ideal mu2:       0.000000000000
 1     -6.13736003393475 0.00000000000 0.00000000000

                 ..............................................
                 | RMS LNV GRADIENT=    0.00000000009917      |
                 | LNV density kernel optimisation converged! |
                 ~~~~~~~~~~~~~~~~~~~~~~~~~~~~~~~~~~~~~~~~~~~~~~

           ........................................................
           | *** NGWF optimisation not converged ***              |
           | RMS NGWF gradient =    0.00023336609611              |
           | Criteria not satisfied:                              |
           | -> RMS NGWF gradient higher than set threshold.      |
           ========================================================

------------------------------- NGWF line search -------------------------------
============ Calculation of NGWF S^-1 using Hotelling algorithm ================ 
         Iteration  |  Frobenius norm and Maximum abs value    (of I-S*S_n^-1)   
               1       0.10543598E-01     0.12885188E-02
               2       0.31737456E-04     0.55583757E-05
               3       0.33174378E-09     0.50364601E-10
               4       0.56788347E-14     0.16653345E-14
================================================================================
============ Calculation of NGWF S^-1 using Hotelling algorithm ================ 
         Iteration  |  Frobenius norm and Maximum abs value    (of I-S*S_n^-1)   
               1       0.14969086E-02     0.17895098E-03
               2       0.63719258E-06     0.11203681E-06
               3       0.13489920E-12     0.21205260E-13
================================================================================
RMS gradient                =       0.00023336609611
Trial step length           =               1.239828
Gradient along search dir.  =         -0.00614514833
Functional at step 0        =      -6.13736003393475
Functional at step 1        =      -6.14163968396190
Functional predicted        =      -6.14170588881917
Selected quadratic step     =               1.414402
Conjugate gradients coeff.  =               0.171299
--------------------------- NGWF line search finished --------------------------
                                               

################################################################################
########################### NGWF CG iteration  005 #############################
################################################################################
****** Reciprocal space K.E. preconditioning with k_zero =  3.0000 a0^-1 *******
   Initial electron number for spin 1:      20.01501527
   Initial electron number for spin 2:       0.00000000
     Final electron number for spin 1:      20.00000000
     Final electron number for spin 2:       0.00000000

=================== Penalty functional idempotency correction ==================
 RMS occupancy error at iteration   1:  0.001827 (step -0.5014 Ne1=     20.0000)
                                                               Ne2=      0.0000
 RMS occupancy error at iteration   2:  0.000012 (step -0.5000 Ne1=     20.0000)
                                                               Ne2=      0.0000
            Final RMS occupancy error   :  0.000000 (Ne1=     20.0000)
                                                     Ne2=      0.0000
            Final occupancy bounds spin 1: [  1.000,  1.000]
            Final occupancy bounds spin 2: [  0.000,  0.000]
================================================================================

................................................................................
<<<<<<<<<<<<<< LNV (Original version) density kernel optimisation >>>>>>>>>>>>>>
~~~~~~~~~~~~~~~~~~~~~~~~~~~~~~~~~~~~~~~~~~~~~~~~~~~~~~~~~~~~~~~~~~~~~~~~~~~~~~~~
iter|       energy      |  rms DeltaK |  commutator |LScoef|CGcoef|      Ne    |
      ideal mu1:      -0.131195638076
      ideal mu2:       0.000000000000
 1     -6.14167202106752 0.00000000000 0.00000000000

                 ..............................................
                 | RMS LNV GRADIENT=    0.00000000052539      |
                 | LNV density kernel optimisation converged! |
                 ~~~~~~~~~~~~~~~~~~~~~~~~~~~~~~~~~~~~~~~~~~~~~~

           ........................................................
           | *** NGWF optimisation not converged ***              |
           | RMS NGWF gradient =    0.00018035739168              |
           | Criteria not satisfied:                              |
           | -> RMS NGWF gradient higher than set threshold.      |
           ========================================================

================================================================================
           ---------------- ENERGY COMPONENTS (Eh) ----------------
           | Kinetic                    :       16.81458553845486 |
           | Pseudopotential (local)    :      -52.80505249087677 |
           | Pseudopotential (non-local):        0.00000000000000 |
           | Hartree                    :       21.58917698635446 |
           | Exchange-correlation       :       -7.43306037484063 |
           | Ewald                      :       15.69267831984056 |
           | Total                      :       -6.14167202106751 |
           --------------------------------------------------------
           ------ LOCAL ENERGY COMPONENTS FROM MATRIX TRACES ------
           | Pseudopotential (local)    :      -52.80505249087565 |
           | Hartree                    :       21.58917698635435 |
           --------------------------------------------------------
           Integrated density           :       20.00000000000004
           Integrated spin density      :       20.00000000000004
           Integrated |spin density|    :       20.00000000000004
           Local density approx. <S^2>  :      110.00000000000000
           Integrated density tr(KS)    :       20.00000000000000
           Integrated spin tr(KS)       :       20.00000000000000
================================================================================


------------------------------- NGWF line search -------------------------------
============ Calculation of NGWF S^-1 using Hotelling algorithm ================ 
         Iteration  |  Frobenius norm and Maximum abs value    (of I-S*S_n^-1)   
               1       0.15283414E-01     0.17932298E-02
               2       0.68920837E-04     0.11679143E-04
               3       0.16156893E-08     0.23750535E-09
               4       0.46538111E-14     0.13322676E-14
================================================================================
============ Calculation of NGWF S^-1 using Hotelling algorithm ================ 
         Iteration  |  Frobenius norm and Maximum abs value    (of I-S*S_n^-1)   
               1       0.15531413E-02     0.17978920E-03
               2       0.71206540E-06     0.12061244E-06
               3       0.17260033E-12     0.26534330E-13
================================================================================
RMS gradient                =       0.00018035739168
Trial step length           =               1.324241
Gradient along search dir.  =         -0.00444817852
Functional at step 0        =      -6.14167202106752
Functional at step 1        =      -6.14488839876804
Functional predicted        =      -6.14491589257939
Selected quadratic step     =               1.458517
Conjugate gradients coeff.  =               0.597300
--------------------------- NGWF line search finished --------------------------
                                               

################################################################################
########################### NGWF CG iteration  006 #############################
################################################################################
****** Reciprocal space K.E. preconditioning with k_zero =  3.0000 a0^-1 *******
   Initial electron number for spin 1:      20.01055685
   Initial electron number for spin 2:       0.00000000
     Final electron number for spin 1:      20.00000000
     Final electron number for spin 2:       0.00000000

=================== Penalty functional idempotency correction ==================
 RMS occupancy error at iteration   1:  0.002635 (step -0.5006 Ne1=     20.0000)
                                                               Ne2=      0.0000
 RMS occupancy error at iteration   2:  0.000025 (step -0.5000 Ne1=     20.0000)
                                                               Ne2=      0.0000
            Final RMS occupancy error   :  0.000000 (Ne1=     20.0000)
                                                     Ne2=      0.0000
            Final occupancy bounds spin 1: [  1.000,  1.000]
            Final occupancy bounds spin 2: [  0.000,  0.000]
================================================================================

................................................................................
<<<<<<<<<<<<<< LNV (Original version) density kernel optimisation >>>>>>>>>>>>>>
~~~~~~~~~~~~~~~~~~~~~~~~~~~~~~~~~~~~~~~~~~~~~~~~~~~~~~~~~~~~~~~~~~~~~~~~~~~~~~~~
iter|       energy      |  rms DeltaK |  commutator |LScoef|CGcoef|      Ne    |
      ideal mu1:      -0.132948345023
      ideal mu2:       0.000000000000
             Q0:      -6.144852268361
             G0:       0.000000000000
   RMS gradient:       0.000000002215
     Trial step:       0.202680023221
             Q1:      -6.144852268361
 Quadratic coef:       0.000000000000
 Linear coef   :       0.000000000000
           Qmin:      -6.144852268361
Quadratic minimum step length (  0.005370836600) accepted
    Initial Ne1:      20.00000000
    Initial Ne2:       0.00000000
      Final Ne1:      20.00000000
      Final Ne2:       0.00000000

=================== Penalty functional idempotency correction ==================
 RMS occupancy error at iteration   1:  0.000000 (step -0.5000 Ne1=     20.0000)
                                                               Ne2=      0.0000
            Final RMS occupancy error   :  0.000000 (Ne1=     20.0000)
                                                     Ne2=      0.0000
            Final occupancy bounds spin 1: [  1.000,  1.000]
            Final occupancy bounds spin 2: [  0.000,  0.000]
================================================================================

 1     -6.14485226836081 0.00000000000 0.00000000000 0.0054  0.000   20.00000000
      ideal mu1:      -0.132948345023
      ideal mu2:       0.000000000000
 2     -6.14485226836082 0.00000000008 0.00000000000

                 ..............................................
                 | RMS LNV GRADIENT=    0.00000000000000      |
                 | LNV density kernel optimisation converged! |
                 ~~~~~~~~~~~~~~~~~~~~~~~~~~~~~~~~~~~~~~~~~~~~~~

           ........................................................
           | *** NGWF optimisation not converged ***              |
           | RMS NGWF gradient =    0.00018179492102              |
           | Criteria not satisfied:                              |
           | -> RMS NGWF gradient higher than set threshold.      |
           ========================================================

------------------------------- NGWF line search -------------------------------
============ Calculation of NGWF S^-1 using Hotelling algorithm ================ 
         Iteration  |  Frobenius norm and Maximum abs value    (of I-S*S_n^-1)   
               1       0.26846330E-01     0.34482038E-02
               2       0.21542598E-03     0.36036280E-04
               3       0.16326473E-07     0.23204194E-08
               4       0.50484295E-14     0.17763568E-14
================================================================================
============ Calculation of NGWF S^-1 using Hotelling algorithm ================ 
         Iteration  |  Frobenius norm and Maximum abs value    (of I-S*S_n^-1)   
               1       0.22947499E-02     0.29361094E-03
               2       0.15705630E-05     0.26329391E-06
               3       0.86386029E-12     0.12501111E-12
================================================================================
RMS gradient                =       0.00018179492102
Trial step length           =               1.389758
Gradient along search dir.  =         -0.00445785493
Functional at step 0        =      -6.14485226836082
Functional at step 1        =      -6.14766008920478
Functional predicted        =      -6.14768488986523
Selected quadratic step     =               1.270845
Conjugate gradients coeff.  =               1.016004
--------------------------- NGWF line search finished --------------------------
                                               

################################################################################
########################### NGWF CG iteration  007 #############################
################################################################################
****** Reciprocal space K.E. preconditioning with k_zero =  3.0000 a0^-1 *******
   Initial electron number for spin 1:      20.00276881
   Initial electron number for spin 2:       0.00000000
     Final electron number for spin 1:      20.00000000
     Final electron number for spin 2:       0.00000000

=================== Penalty functional idempotency correction ==================
 RMS occupancy error at iteration   1:  0.003874 (step -0.5027 Ne1=     20.0000)
                                                               Ne2=      0.0000
 RMS occupancy error at iteration   2:  0.000054 (step -0.5000 Ne1=     20.0000)
                                                               Ne2=      0.0000
            Final RMS occupancy error   :  0.000000 (Ne1=     20.0000)
                                                     Ne2=      0.0000
            Final occupancy bounds spin 1: [  1.000,  1.000]
            Final occupancy bounds spin 2: [  0.000,  0.000]
================================================================================

................................................................................
<<<<<<<<<<<<<< LNV (Original version) density kernel optimisation >>>>>>>>>>>>>>
~~~~~~~~~~~~~~~~~~~~~~~~~~~~~~~~~~~~~~~~~~~~~~~~~~~~~~~~~~~~~~~~~~~~~~~~~~~~~~~~
iter|       energy      |  rms DeltaK |  commutator |LScoef|CGcoef|      Ne    |
      ideal mu1:      -0.134106228880
      ideal mu2:       0.000000000000
             Q0:      -6.147304115395
             G0:       0.000000000000
   RMS gradient:       0.000000010884
     Trial step:       0.032993352160
             Q1:      -6.147304115395
 Quadratic coef:       0.000000000000
 Linear coef   :       0.000000000000
         Quadratic fit unsuccessful: proceeding to cubic fit
             Q2:      -6.147304115395
  Cubic LS coeff:       0.037065992113
Predicted energy:      -6.147304115395
Cubic minimum step length accepted
    Initial Ne1:      20.00000000
    Initial Ne2:       0.00000000
      Final Ne1:      20.00000000
      Final Ne2:       0.00000000

=================== Penalty functional idempotency correction ==================
 RMS occupancy error at iteration   1:  0.000000 (step -0.5000 Ne1=     20.0000)
                                                               Ne2=      0.0000
            Final RMS occupancy error   :  0.000000 (Ne1=     20.0000)
                                                     Ne2=      0.0000
            Final occupancy bounds spin 1: [  1.000,  1.000]
            Final occupancy bounds spin 2: [  0.000,  0.000]
================================================================================

 1     -6.14730411539455 0.00000000000 0.00000000000 0.0371  0.000   20.00000000
      ideal mu1:      -0.134106228880
      ideal mu2:       0.000000000000
 2     -6.14730411539455 0.00000000327 0.00000000000

                 ..............................................
                 | RMS LNV GRADIENT=    0.00000000000000      |
                 | LNV density kernel optimisation converged! |
                 ~~~~~~~~~~~~~~~~~~~~~~~~~~~~~~~~~~~~~~~~~~~~~~

           ........................................................
           | *** NGWF optimisation not converged ***              |
           | RMS NGWF gradient =    0.00019975293218              |
           | Criteria not satisfied:                              |
           | -> RMS NGWF gradient higher than set threshold.      |
           ========================================================

------------------------------- NGWF line search -------------------------------
============ Calculation of NGWF S^-1 using Hotelling algorithm ================ 
         Iteration  |  Frobenius norm and Maximum abs value    (of I-S*S_n^-1)   
               1       0.16495922E-01     0.18138499E-02
               2       0.15122755E-03     0.13605788E-04
               3       0.17078929E-07     0.11434901E-08
               4       0.48061808E-14     0.14432899E-14
================================================================================
============ Calculation of NGWF S^-1 using Hotelling algorithm ================ 
         Iteration  |  Frobenius norm and Maximum abs value    (of I-S*S_n^-1)   
               1       0.26850504E-01     0.29462603E-02
               2       0.39985984E-03     0.36047519E-04
               3       0.11970104E-06     0.79944058E-08
               4       0.14113748E-13     0.18873791E-14
================================================================================
RMS gradient                =       0.00019975293218
Trial step length           =               1.328972
Gradient along search dir.  =         -0.00549224524
Functional at step 0        =      -6.14730411539455
Functional at step 1        =      -6.15321673545319
Functional predicted        =      -6.15691086180781
Selected quadratic step     =               3.498295
Conjugate gradients coeff.  =               0.000000
--------------------------- NGWF line search finished --------------------------
                                               

################################################################################
########################### NGWF CG iteration  008 #############################
################################################################################
****** Reciprocal space K.E. preconditioning with k_zero =  3.0000 a0^-1 *******
   Initial electron number for spin 1:      19.95511736
   Initial electron number for spin 2:       0.00000000
     Final electron number for spin 1:      20.00000000
     Final electron number for spin 2:       0.00000000

=================== Penalty functional idempotency correction ==================
 RMS occupancy error at iteration   1:  0.006526 (step -0.5242 Ne1=     20.0000)
                                                               Ne2=      0.0000
 RMS occupancy error at iteration   2:  0.000192 (step -0.5003 Ne1=     20.0000)
                                                               Ne2=      0.0000
 RMS occupancy error at iteration   3:  0.000000 (step -0.5000 Ne1=     20.0000)
                                                               Ne2=      0.0000
            Final RMS occupancy error   :  0.000000 (Ne1=     20.0000)
                                                     Ne2=      0.0000
            Final occupancy bounds spin 1: [  1.000,  1.000]
            Final occupancy bounds spin 2: [  0.000,  0.000]
================================================================================

................................................................................
<<<<<<<<<<<<<< LNV (Original version) density kernel optimisation >>>>>>>>>>>>>>
~~~~~~~~~~~~~~~~~~~~~~~~~~~~~~~~~~~~~~~~~~~~~~~~~~~~~~~~~~~~~~~~~~~~~~~~~~~~~~~~
iter|       energy      |  rms DeltaK |  commutator |LScoef|CGcoef|      Ne    |
      ideal mu1:      -0.131528986506
      ideal mu2:       0.000000000000
 1     -6.15374496192742 0.00000000000 0.00000000000

                 ..............................................
                 | RMS LNV GRADIENT=    0.00000000000077      |
                 | LNV density kernel optimisation converged! |
                 ~~~~~~~~~~~~~~~~~~~~~~~~~~~~~~~~~~~~~~~~~~~~~~

           ........................................................
           | *** NGWF optimisation not converged ***              |
           | RMS NGWF gradient =    0.00020315423814              |
           | Criteria not satisfied:                              |
           | -> RMS NGWF gradient higher than set threshold.      |
           ========================================================

------------------------------- NGWF line search -------------------------------
============ Calculation of NGWF S^-1 using Hotelling algorithm ================ 
         Iteration  |  Frobenius norm and Maximum abs value    (of I-S*S_n^-1)   
               1       0.38957659E-01     0.46455428E-02
               2       0.65452066E-03     0.75885050E-04
               3       0.25265490E-06     0.21419901E-07
               4       0.48457211E-13     0.48849813E-14
================================================================================
============ Calculation of NGWF S^-1 using Hotelling algorithm ================ 
         Iteration  |  Frobenius norm and Maximum abs value    (of I-S*S_n^-1)   
               1       0.89993728E-02     0.10704525E-02
               2       0.35091852E-04     0.40494403E-05
               3       0.72943275E-09     0.61573413E-10
               4       0.59978328E-14     0.17763568E-14
================================================================================
RMS gradient                =       0.00020315423814
Trial step length           =               2.156186
Gradient along search dir.  =         -0.00379020071
Functional at step 0        =      -6.15374496192742
Functional at step 1        =      -6.15661594185705
Functional predicted        =      -6.15689449703471
Selected quadratic step     =               1.661936
Conjugate gradients coeff.  =               1.034345
--------------------------- NGWF line search finished --------------------------
                                               

################################################################################
########################### NGWF CG iteration  009 #############################
################################################################################
****** Reciprocal space K.E. preconditioning with k_zero =  3.0000 a0^-1 *******
   Initial electron number for spin 1:      19.96709229
   Initial electron number for spin 2:       0.00000000
     Final electron number for spin 1:      20.00000000
     Final electron number for spin 2:       0.00000000

=================== Penalty functional idempotency correction ==================
 RMS occupancy error at iteration   1:  0.004583 (step -0.5095 Ne1=     20.0000)
                                                               Ne2=      0.0000
 RMS occupancy error at iteration   2:  0.000085 (step -0.5001 Ne1=     20.0000)
                                                               Ne2=      0.0000
            Final RMS occupancy error   :  0.000000 (Ne1=     20.0000)
                                                     Ne2=      0.0000
            Final occupancy bounds spin 1: [  1.000,  1.000]
            Final occupancy bounds spin 2: [  0.000,  0.000]
================================================================================

................................................................................
<<<<<<<<<<<<<< LNV (Original version) density kernel optimisation >>>>>>>>>>>>>>
~~~~~~~~~~~~~~~~~~~~~~~~~~~~~~~~~~~~~~~~~~~~~~~~~~~~~~~~~~~~~~~~~~~~~~~~~~~~~~~~
iter|       energy      |  rms DeltaK |  commutator |LScoef|CGcoef|      Ne    |
      ideal mu1:      -0.131098471408
      ideal mu2:       0.000000000000
             Q0:      -6.155684806729
             G0:      -0.000000000001
   RMS gradient:       0.000000058293
     Trial step:       0.034970435098
             Q1:      -6.155684806729
 Quadratic coef:       0.000000000000
 Linear coef   :       0.000000000000
         Quadratic fit unsuccessful: proceeding to cubic fit
             Q2:      -6.155684806729
  Cubic LS coeff:       0.055188413262
Predicted energy:      -6.155684806729
Cubic minimum step length accepted
    Initial Ne1:      19.99999994
    Initial Ne2:       0.00000000
      Final Ne1:      20.00000000
      Final Ne2:       0.00000000

=================== Penalty functional idempotency correction ==================
 RMS occupancy error at iteration   1:  0.000000 (step -0.5000 Ne1=     20.0000)
                                                               Ne2=      0.0000
            Final RMS occupancy error   :  0.000000 (Ne1=     20.0000)
                                                     Ne2=      0.0000
            Final occupancy bounds spin 1: [  1.000,  1.000]
            Final occupancy bounds spin 2: [  0.000,  0.000]
================================================================================

 1     -6.15568480672886 0.00000000000 0.00000000000 0.0552  0.000   20.00000000
      ideal mu1:      -0.131098471408
      ideal mu2:       0.000000000000
 2     -6.15568480672883 0.00000004129 0.00000000000

                 ..............................................
                 | RMS LNV GRADIENT=    0.00000000000004      |
                 | LNV density kernel optimisation converged! |
                 ~~~~~~~~~~~~~~~~~~~~~~~~~~~~~~~~~~~~~~~~~~~~~~

           ........................................................
           | *** NGWF optimisation not converged ***              |
           | RMS NGWF gradient =    0.00007117344573              |
           | Criteria not satisfied:                              |
           | -> RMS NGWF gradient higher than set threshold.      |
           ========================================================

------------------------------- NGWF line search -------------------------------
WARNING: slope along search direction is positive:    0.517394E-03
         Resetting conjugate gradients!
WARNING: slope along search direction is still positive.
         Reversing search direction!!
============ Calculation of NGWF S^-1 using Hotelling algorithm ================ 
         Iteration  |  Frobenius norm and Maximum abs value    (of I-S*S_n^-1)   
               1       0.15727841E-01     0.18873084E-02
               2       0.99498868E-04     0.12368267E-04
               3       0.52681275E-08     0.49500337E-09
               4       0.55632254E-14     0.15057400E-14
================================================================================
[...]
 +           4       -0.183859     (  0.0000  0.0000  0.0800)    +
 +           5       -0.144955     (  0.0000  0.0000 -0.1200)    +
 +           6       -0.132790     (  0.0000  0.0000  0.1300)    +
 +           7       -0.074408     (  0.0000  0.0000 -0.1700)    +
 +           8       -0.057391     (  0.0000  0.0000  0.1800)    +
 +           9        0.020359     (  0.0000  0.0000 -0.2200)    +
 +          10        0.042231     (  0.0000  0.0000  0.2300)    +
 +          11        0.139617     (  0.0000  0.0000 -0.2700)    +
 +          12        0.166469     (  0.0000  0.0000  0.2800)    +
 +          13        0.283934     (  0.0000  0.0000 -0.3200)    +
 +          14        0.315797     (  0.0000  0.0000  0.3300)    +
 +          15        0.453342     (  0.0000  0.0000 -0.3700)    +
 +          16        0.490390     (  0.0000  0.0000  0.3800)    +
 +          17        0.650306     (  0.0000  0.0000 -0.4200)    +
 +          18        0.692774     (  0.0000  0.0000  0.4300)    +
 +          19        0.850885     (  0.0000  0.0000 -0.4700)    +
 +          20        0.878224     (  0.0000  0.0000  0.4800)    +
 +                                                               +
 + ------------------------------------------------------------- +
 +  Spin=2 kpt=    3 ( 0.00000  0.00000 -0.30000)                +
 + ------------------------------------------------------------- +
 +                                                               +
 +           1       -0.213821     (  0.0000  0.0000 -0.0150)    +
 +           2       -0.208976     (  0.0000  0.0000  0.0350)    +
 +           3       -0.194423     (  0.0000  0.0000 -0.0650)    +
 +           4       -0.179851     (  0.0000  0.0000  0.0850)    +
 +           5       -0.150672     (  0.0000  0.0000 -0.1150)    +
 +           6       -0.126342     (  0.0000  0.0000  0.1350)    +
 +           7       -0.082554     (  0.0000  0.0000 -0.1650)    +
 +           8       -0.048519     (  0.0000  0.0000  0.1850)    +
 +           9        0.009791     (  0.0000  0.0000 -0.2150)    +
 +          10        0.053535     (  0.0000  0.0000  0.2350)    +
 +          11        0.126569     (  0.0000  0.0000 -0.2650)    +
 +          12        0.180273     (  0.0000  0.0000  0.2850)    +
 +          13        0.268375     (  0.0000  0.0000 -0.3150)    +
 +          14        0.332101     (  0.0000  0.0000  0.3350)    +
 +          15        0.435236     (  0.0000  0.0000 -0.3650)    +
 +          16        0.509346     (  0.0000  0.0000  0.3850)    +
 +          17        0.629339     (  0.0000  0.0000 -0.4150)    +
 +          18        0.714123     (  0.0000  0.0000  0.4350)    +
 +          19        0.834351     (  0.0000  0.0000 -0.4650)    +
 +          20        0.888399     (  0.0000  0.0000  0.4850)    +
 +                                                               +
 + ------------------------------------------------------------- +
 +  Spin=2 kpt=    4 ( 0.00000  0.00000 -0.20000)                +
 + ------------------------------------------------------------- +
 +                                                               +
 +           1       -0.214427     (  0.0000  0.0000 -0.0100)    +
 +           2       -0.207158     (  0.0000  0.0000  0.0400)    +
 +           3       -0.197456     (  0.0000  0.0000 -0.0600)    +
 +           4       -0.175598     (  0.0000  0.0000  0.0900)    +
 +           5       -0.156145     (  0.0000  0.0000 -0.1100)    +
 +           6       -0.119650     (  0.0000  0.0000  0.1400)    +
 +           7       -0.090458     (  0.0000  0.0000 -0.1600)    +
 +           8       -0.039407     (  0.0000  0.0000  0.1900)    +
 +           9       -0.000534     (  0.0000  0.0000 -0.2100)    +
 +          10        0.065086     (  0.0000  0.0000  0.2400)    +
 +          11        0.113773     (  0.0000  0.0000 -0.2600)    +
 +          12        0.194329     (  0.0000  0.0000  0.2900)    +
 +          13        0.253066     (  0.0000  0.0000 -0.3100)    +
 +          14        0.348655     (  0.0000  0.0000  0.3400)    +
 +          15        0.417400     (  0.0000  0.0000 -0.3600)    +
 +          16        0.528598     (  0.0000  0.0000  0.3900)    +
 +          17        0.608615     (  0.0000  0.0000 -0.4100)    +
 +          18        0.735402     (  0.0000  0.0000  0.4400)    +
 +          19        0.816342     (  0.0000  0.0000 -0.4600)    +
 +          20        0.895877     (  0.0000  0.0000  0.4900)    +
 +                                                               +
 + ------------------------------------------------------------- +
 +  Spin=2 kpt=    5 ( 0.00000  0.00000 -0.10000)                +
 + ------------------------------------------------------------- +
 +                                                               +
 +           1       -0.214790     (  0.0000  0.0000 -0.0050)    +
 +           2       -0.205097     (  0.0000  0.0000  0.0450)    +
 +           3       -0.200246     (  0.0000  0.0000 -0.0550)    +
 +           4       -0.171101     (  0.0000  0.0000  0.0950)    +
 +           5       -0.161375     (  0.0000  0.0000 -0.1050)    +
 +           6       -0.112716     (  0.0000  0.0000  0.1450)    +
 +           7       -0.098120     (  0.0000  0.0000 -0.1550)    +
 +           8       -0.030052     (  0.0000  0.0000  0.1950)    +
 +           9       -0.010616     (  0.0000  0.0000 -0.2050)    +
 +          10        0.076884     (  0.0000  0.0000  0.2450)    +
 +          11        0.101227     (  0.0000  0.0000 -0.2550)    +
 +          12        0.208636     (  0.0000  0.0000  0.2950)    +
 +          13        0.238006     (  0.0000  0.0000 -0.3050)    +
 +          14        0.365459     (  0.0000  0.0000  0.3450)    +
 +          15        0.399828     (  0.0000  0.0000 -0.3550)    +
 +          16        0.548152     (  0.0000  0.0000  0.3950)    +
 +          17        0.588166     (  0.0000  0.0000 -0.4050)    +
 +          18        0.756464     (  0.0000  0.0000  0.4450)    +
 +          19        0.797172     (  0.0000  0.0000 -0.4550)    +
 +          20        0.900451     (  0.0000  0.0000  0.4950)    +
 +                                                               +
 + ------------------------------------------------------------- +
 +  Spin=2 kpt=    6 ( 0.00000  0.00000  0.00000)                +
 + ------------------------------------------------------------- +
 +                                                               +
 +           1       -0.214911     (  0.0000  0.0000  0.0000)    +
 +           2       -0.202793     (  0.0000  0.0000 -0.0500)    +
 +           3       -0.202793     (  0.0000  0.0000  0.0500)    +
 +           4       -0.166360     (  0.0000  0.0000 -0.1000)    +
 +           5       -0.166360     (  0.0000  0.0000  0.1000)    +
 +           6       -0.105539     (  0.0000  0.0000 -0.1500)    +
 +           7       -0.105539     (  0.0000  0.0000  0.1500)    +
 +           8       -0.020455     (  0.0000  0.0000 -0.2000)    +
 +           9       -0.020455     (  0.0000  0.0000  0.2000)    +
 +          10        0.088931     (  0.0000  0.0000 -0.2500)    +
 +          11        0.088931     (  0.0000  0.0000  0.2500)    +
 +          12        0.223196     (  0.0000  0.0000 -0.3000)    +
 +          13        0.223196     (  0.0000  0.0000  0.3000)    +
 +          14        0.382516     (  0.0000  0.0000 -0.3500)    +
 +          15        0.382516     (  0.0000  0.0000  0.3500)    +
 +          16        0.568008     (  0.0000  0.0000 -0.4000)    +
 +          17        0.568008     (  0.0000  0.0000  0.4000)    +
 +          18        0.777127     (  0.0000  0.0000 -0.4500)    +
 +          19        0.777127     (  0.0000  0.0000  0.4500)    +
 +          20        0.901991     (  0.0000  0.0000 -0.5000)    +
 +                                                               +
 + ------------------------------------------------------------- +
 +  Spin=2 kpt=    7 ( 0.00000  0.00000  0.10000)                +
 + ------------------------------------------------------------- +
 +                                                               +
 +           1       -0.214790     (  0.0000  0.0000  0.0050)    +
 +           2       -0.205097     (  0.0000  0.0000 -0.0450)    +
 +           3       -0.200246     (  0.0000  0.0000  0.0550)    +
 +           4       -0.171101     (  0.0000  0.0000 -0.0950)    +
 +           5       -0.161375     (  0.0000  0.0000  0.1050)    +
 +           6       -0.112716     (  0.0000  0.0000 -0.1450)    +
 +           7       -0.098120     (  0.0000  0.0000  0.1550)    +
 +           8       -0.030052     (  0.0000  0.0000 -0.1950)    +
 +           9       -0.010616     (  0.0000  0.0000  0.2050)    +
 +          10        0.076884     (  0.0000  0.0000 -0.2450)    +
 +          11        0.101227     (  0.0000  0.0000  0.2550)    +
 +          12        0.208636     (  0.0000  0.0000 -0.2950)    +
 +          13        0.238006     (  0.0000  0.0000  0.3050)    +
 +          14        0.365459     (  0.0000  0.0000 -0.3450)    +
 +          15        0.399828     (  0.0000  0.0000  0.3550)    +
 +          16        0.548152     (  0.0000  0.0000 -0.3950)    +
 +          17        0.588166     (  0.0000  0.0000  0.4050)    +
 +          18        0.756464     (  0.0000  0.0000 -0.4450)    +
 +          19        0.797172     (  0.0000  0.0000  0.4550)    +
 +          20        0.900451     (  0.0000  0.0000 -0.4950)    +
 +                                                               +
 + ------------------------------------------------------------- +
 +  Spin=2 kpt=    8 ( 0.00000  0.00000  0.20000)                +
 + ------------------------------------------------------------- +
 +                                                               +
 +           1       -0.214427     (  0.0000  0.0000  0.0100)    +
 +           2       -0.207158     (  0.0000  0.0000 -0.0400)    +
 +           3       -0.197456     (  0.0000  0.0000  0.0600)    +
 +           4       -0.175598     (  0.0000  0.0000 -0.0900)    +
 +           5       -0.156145     (  0.0000  0.0000  0.1100)    +
 +           6       -0.119650     (  0.0000  0.0000 -0.1400)    +
 +           7       -0.090458     (  0.0000  0.0000  0.1600)    +
 +           8       -0.039407     (  0.0000  0.0000 -0.1900)    +
 +           9       -0.000534     (  0.0000  0.0000  0.2100)    +
 +          10        0.065086     (  0.0000  0.0000 -0.2400)    +
 +          11        0.113773     (  0.0000  0.0000  0.2600)    +
 +          12        0.194329     (  0.0000  0.0000 -0.2900)    +
 +          13        0.253066     (  0.0000  0.0000  0.3100)    +
 +          14        0.348655     (  0.0000  0.0000 -0.3400)    +
 +          15        0.417400     (  0.0000  0.0000  0.3600)    +
 +          16        0.528598     (  0.0000  0.0000 -0.3900)    +
 +          17        0.608615     (  0.0000  0.0000  0.4100)    +
 +          18        0.735402     (  0.0000  0.0000 -0.4400)    +
 +          19        0.816342     (  0.0000  0.0000  0.4600)    +
 +          20        0.895877     (  0.0000  0.0000 -0.4900)    +
 +                                                               +
 + ------------------------------------------------------------- +
 +  Spin=2 kpt=    9 ( 0.00000  0.00000  0.30000)                +
 + ------------------------------------------------------------- +
 +                                                               +
 +           1       -0.213821     (  0.0000  0.0000  0.0150)    +
 +           2       -0.208976     (  0.0000  0.0000 -0.0350)    +
 +           3       -0.194423     (  0.0000  0.0000  0.0650)    +
 +           4       -0.179851     (  0.0000  0.0000 -0.0850)    +
 +           5       -0.150672     (  0.0000  0.0000  0.1150)    +
 +           6       -0.126342     (  0.0000  0.0000 -0.1350)    +
 +           7       -0.082554     (  0.0000  0.0000  0.1650)    +
 +           8       -0.048519     (  0.0000  0.0000 -0.1850)    +
 +           9        0.009791     (  0.0000  0.0000  0.2150)    +
 +          10        0.053535     (  0.0000  0.0000 -0.2350)    +
 +          11        0.126569     (  0.0000  0.0000  0.2650)    +
 +          12        0.180273     (  0.0000  0.0000 -0.2850)    +
 +          13        0.268375     (  0.0000  0.0000  0.3150)    +
 +          14        0.332101     (  0.0000  0.0000 -0.3350)    +
 +          15        0.435236     (  0.0000  0.0000  0.3650)    +
 +          16        0.509346     (  0.0000  0.0000 -0.3850)    +
 +          17        0.629339     (  0.0000  0.0000  0.4150)    +
 +          18        0.714123     (  0.0000  0.0000 -0.4350)    +
 +          19        0.834351     (  0.0000  0.0000  0.4650)    +
 +          20        0.888399     (  0.0000  0.0000 -0.4850)    +
 +                                                               +
 + ------------------------------------------------------------- +
 +  Spin=2 kpt=   10 ( 0.00000  0.00000  0.40000)                +
 + ------------------------------------------------------------- +
 +                                                               +
 +           1       -0.212974     (  0.0000  0.0000  0.0200)    +
 +           2       -0.210551     (  0.0000  0.0000 -0.0300)    +
 +           3       -0.191145     (  0.0000  0.0000  0.0700)    +
 +           4       -0.183859     (  0.0000  0.0000 -0.0800)    +
 +           5       -0.144955     (  0.0000  0.0000  0.1200)    +
 +           6       -0.132790     (  0.0000  0.0000 -0.1300)    +
 +           7       -0.074408     (  0.0000  0.0000  0.1700)    +
 +           8       -0.057391     (  0.0000  0.0000 -0.1800)    +
 +           9        0.020359     (  0.0000  0.0000  0.2200)    +
 +          10        0.042231     (  0.0000  0.0000 -0.2300)    +
 +          11        0.139617     (  0.0000  0.0000  0.2700)    +
 +          12        0.166469     (  0.0000  0.0000 -0.2800)    +
 +          13        0.283934     (  0.0000  0.0000  0.3200)    +
 +          14        0.315797     (  0.0000  0.0000 -0.3300)    +
 +          15        0.453342     (  0.0000  0.0000  0.3700)    +
 +          16        0.490390     (  0.0000  0.0000 -0.3800)    +
 +          17        0.650306     (  0.0000  0.0000  0.4200)    +
 +          18        0.692774     (  0.0000  0.0000 -0.4300)    +
 +          19        0.850885     (  0.0000  0.0000  0.4700)    +
 +          20        0.878224     (  0.0000  0.0000 -0.4800)    +
 +                                                               +
 + ------------------------------------------------------------- +
 +  Spin=2 kpt=   11 ( 0.00000  0.00000  0.50000)                +
 + ------------------------------------------------------------- +
 +                                                               +
 +           1       -0.211884     (  0.0000  0.0000  0.0250)    +
 +           2       -0.211883     (  0.0000  0.0000 -0.0250)    +
 +           3       -0.187624     (  0.0000  0.0000  0.0750)    +
 +           4       -0.187624     (  0.0000  0.0000 -0.0750)    +
 +           5       -0.138994     (  0.0000  0.0000  0.1250)    +
 +           6       -0.138994     (  0.0000  0.0000 -0.1250)    +
 +           7       -0.066020     (  0.0000  0.0000  0.1750)    +
 +           8       -0.066020     (  0.0000  0.0000 -0.1750)    +
 +           9        0.031173     (  0.0000  0.0000  0.2250)    +
 +          10        0.031173     (  0.0000  0.0000 -0.2250)    +
 +          11        0.152917     (  0.0000  0.0000  0.2750)    +
 +          12        0.152917     (  0.0000  0.0000 -0.2750)    +
 +          13        0.299742     (  0.0000  0.0000  0.3250)    +
 +          14        0.299742     (  0.0000  0.0000 -0.3250)    +
 +          15        0.471724     (  0.0000  0.0000  0.3750)    +
 +          16        0.471724     (  0.0000  0.0000 -0.3750)    +
 +          17        0.671473     (  0.0000  0.0000  0.4250)    +
 +          18        0.671473     (  0.0000  0.0000 -0.4250)    +
 +          19        0.865618     (  0.0000  0.0000  0.4750)    +
 +          20        0.865618     (  0.0000  0.0000 -0.4750)    +
 +                                                               +
 + ============================================================= +

------------------------------ TIMING INFORMATION ------------------------------
TOTAL TIME:     514.694s on     4 node(s)
================== AVERAGE TIMINGS FROM ALL NODES (CUMULATIVE) =================
|| TAG                                   n calls    cpu time   %total  Gflops ||
|| total_time                          :       1     514.69s 100.000%  ------ ||
|| ewald_calculate_energy              :       1       0.01s   0.002%  ------ ||
|| sparse_init                         :       1       0.01s   0.002%  ------ ||
|| integrals_brappd_ketppd             :      28       0.04s   0.009%  ------ ||
|| integrals_kinetic                   :      28       6.55s   1.272%  ------ ||
|| basis_copy_function_to_box          :     705       1.21s   0.234%  ------ ||
|| fourier_apply_box_pair              :     344      10.68s   2.075%   5.078 ||
|| fourier_apply_box                   :    2564     239.73s  46.577%   8.018 ||
|| basis_extract_function_from_box     :    4105       0.39s   0.075%  ------ ||
|| sparse_hotelling_invert             :      28       0.02s   0.004%  ------ ||
|| pseudo_make_structure_factor        :       1       0.51s   0.099%  ------ ||
|| pseudopotentials_local_on_grid      :       1       0.14s   0.026%  ------ ||
|| fourier_apply_cell_backward         :      59       4.33s   0.840%   3.094 ||
|| density_initial_guess_recip         :       1       0.16s   0.031%  ------ ||
|| hartree_on_grid                     :      57       9.81s   1.905%  ------ ||
|| fourier_apply_cell_forward          :      57       3.55s   0.690%   3.639 ||
|| integrals_locpot_dbl_grid           :      57     125.49s  24.381%  ------ ||
|| potential_apply_to_ngwf_batch       :      57     123.67s  24.029%  ------ ||
|| cell_grid_extract_box               :     524      22.04s   4.282%  ------ ||
|| palser_mano_kernel_optimise         :       1       0.00s   0.001%  ------ ||
|| penalty_denskernel_optimise_cg      :       1      47.63s   9.254%  ------ ||
|| density_on_dbl_grid                 :      56     209.31s  40.666%  ------ ||
|| density_batch_row_sums              :      56       0.60s   0.116%  ------ ||
|| basis_add_function_to_box           :   11880       1.23s   0.239%  ------ ||
|| density_batch_interp_deposit        :      56     189.30s  36.779%  ------ ||
|| density_fftbox_interpolate_multiply :     280     159.19s  30.930%  ------ ||
|| density_fftbox_deposit_to_cell      :     280      30.10s   5.849%  ------ ||
|| cell_grid_deposit_box               :     560      30.10s   5.848%  ------ ||
|| xc_energy_potential                 :      56      36.58s   7.108%  ------ ||
|| ngwf_cg_optimise                    :       1     446.43s  86.737%  ------ ||
|| lnv_denskernel_optimise_cg          :      13     231.25s  44.929%  ------ ||
|| kernel_fix                          :      19       0.07s   0.013%  ------ ||
|| kernel_purify                       :      77       0.04s   0.009%  ------ ||
|| lnv_gradient_norm                   :      19       0.03s   0.005%  ------ ||
|| ngwf_gradient_lnv                   :      13      99.76s  19.382%  ------ ||
|| ngwf_gradient_coeffs                :      13       0.02s   0.004%  ------ ||
|| ngwf_gradient_batch                 :      13      95.73s  18.600%  ------ ||
|| hamiltonian_energy_components       :       3      34.86s   6.773%  ------ ||
|| properties_calculate                :       1       9.45s   1.836%  ------ ||
================================================================================

Job completed: 28-05-2011 00:02 (+0100)

Application 646069 resources: utime ~2000s, stime ~59s
