 +---------------------------------------------------------------+
 |                                                               |
 |        ####### #     # ####### ####### ####### ######         |
 |        #     # ##    # #          #    #       #     #        |
 |        #     # # #   # #          #    #       #     #        |
 |        #     # #  #  # #####      #    #####   ######         |
 |        #     # #   # # #          #    #       #              |
 |        #     # #    ## #          #    #       #              |
 |        ####### #     # #######    #    ####### #              |
 |                                                               |
 |        Linear-Scaling Ab Initio Total Energy Program          |
 |                                                               |
 |          Release for academic collaborators of ODG            |
 |                                              Version 3.0      |
 |                                                               |
 +---------------------------------------------------------------+
 |                                                               |
 |  Authors:                                                     |
 |  Peter D. Haynes, Nicholas D. M. Hine, Arash. A. Mostofi,     |
 |  Mike C. Payne and Chris-Kriton Skylaris                      |
 |                                                               |
 |  Contributors:                                                |
 |  P. W. Avraam, S. J. Clark, O. Dieguez, S. M. M. Dubois,      |
 |  J. Dziedzic, H. H. Helal, Q. O. Hill, D. D. O`Regan,         |
 |  C. J. Pickard, M. I. J. Probert, L. Ratcliff, M. Robinson    |
 |  and A. Ruiz Serrano                                          |
 |                                                               |
 |                                   Copyright (c) 2004-2011     |
 |                                                               |
 |  Please cite:                                                 |
 |  "Introducing ONETEP: Linear-scaling density functional       |
 |   simulations on parallel computers".                         |
 |   C.-K. Skylaris, P. D. Haynes, A. A. Mostofi, M. C. Payne.   |
 |   J. Chem. Phys. 122 084119 (2005).                           |
 |                                                               |
 |          in all publications arising from your use of ONETEP. |
 |                                                               |
 +---------------------------------------------------------------+
 |                                                               |
 |   ONETEP is based on developments described in the following  |
 |   publications:                                               |
 |                                                               |
 |  "Nonorthogonal generalized Wannier function pseudopotential  |
 |   plane-wave method".                                         |
 |   C.-K. Skylaris, A. A. Mostofi, P. D. Haynes, O. Dieguez,    |
 |   M. C. Payne.                                                |
 |   Phys. Rev. B 66 035119 (2002).                              |
 |                                                               |
 |  "Preconditioned iterative minimization for linear-scaling    |
 |   electronic structure calculations".                         |
 |   A. A. Mostofi, P. D. Haynes, C.-K. Skylaris, M. C. Payne.   |
 |   J. Chem. Phys. 119(17), pp.8842-8848 (2003).                |
 |                                                               |
 |  "Total-energy calculations on a real space grid with         |
 |   localized functions and a plane-wave basis".                |
 |   A. A. Mostofi, C.-K. Skylaris, P. D. Haynes, M. C. Payne.   |
 |   Comput. Phys. Commun. 147, pp.788-802 (2002).               |
 |                                                               |
 |  "Accurate kinetic energy evaluation in electronic structure  |
 |   calculations with localized functions on real space grids"  |
 |   C.-K. Skylaris, A. A. Mostofi, P. D. Haynes, C. J. Pickard, |
 |   M. C. Payne.                                                |
 |   Comput. Phys. Commun. 140, pp.315-322 (2001).               |
 |                                                               |
 +---------------------------------------------------------------+

Job started: 27-05-2011 23:09 (+0100)

Running on     4 processors.

Reading parameters from file "benzene_dimer_vdw.dat" ...... done
Reading geometry and species blocks from file "benzene_dimer_vdw.dat" ...
  <species_atomic_set> block not found: NGWF initialisation set to AUTO
... done
 Writing xyz coordinates to file "benzene_dimer_vdw.xyz" ... done
-------------------------------------------------------------------------------
---------------------------- RUN-TIME PARAMETERS ------------------------------
-------------------------------------------------------------------------------
task                      : GEOMETRYOPTIMIZATION *! Type of calculation (String 
cutoffenergy              : 11.0246982673597      hartree *! Plane wave kinetic 
kernelcutoff              : 1000.00000000000 *! Density kernel radius in Bohr ( 
xcfunctional              : PBE *! Exchange-correlation functional (String)     
libxcxfuncid              : 0 *! Functional identifier for which exchange funct 
libxccfuncid              : 0 *! Functional identifier for which correlation fu 
charge                    : 0.000000000000000E+000 *! The total charge of the s 
spin                      : 0 *! Total spin of system (Integer)                 
spinpolarized             : F *! Switch for spin polarization (Boolean)         
spinpolarised             : F *! Switch for spin polarisation (Boolean)         
constantefield            : 0.0 0.0 0.0 *! Cartesian coordinates of constant el 
fftboxpref                : 0 0 0 *! Preferred FFT box dimensions (String)      
ppdnpoints                : 0 0 0 *! PPD edge length in grid points for each la 
psincspacing              : 0.0 0.0 0.0 *! PSINC grid spacing in atomic units ( 
oldinput                  : F *! Read old-format input file (Boolean)           
develcode                 : *! For development code only (String)               
nnho                      : F *! Initialise NGWFs to nonorthogonal natural hybr 
ngwfhalo                  : -1.00000000000000 *! Halo extension to NGWF radii ( 
nonscforces               : F *! Include non self-consistent forces due to NGWF 
maxitpalsermano           : 50 *! Maximum number of iterations for Palser-Manol 
maxitpen                  : 3 *! Max number of penalty functional iterations (I 
penparam                  : 4.00000000000000 *! Penalty functional parameter (D 
minitlnv                  : 3 *! Min number of LNV iterations (Integer)         
maxitlnv                  : 8 *! Max number of LNV iterations (Integer)         
maxitlnvcoarse            : 0 *! Max number of low-accuracy LNV iterations (Int 
lnvthresholdorig          : 1.000000000000000E-009 *! LNV convergence threshold 
lnvcgtype                 : LNV_FLETCHER *! Type of CG coefficient for LNV dens 
lnvcgmaxstep              : 3.00000000000000 *! Maximum length of trial step fo 
exactlnv                  : T *! Use original LNV algorithm (Boolean)           
oldlnv                    : F *! Use LNV algorithm backwards compatible pre Dec 
lnvchecktrialsteps        : F *! Check stability of kernel at each trial step d 
kerfix                    : 1 *! Density kernel fixing approach (Integer)       
maxitkernelfix            : 3 *! Maximum # iterations of Penalty Functional ide 
initialdensrealspace      : F *! Construct initial density in real space from a 
kerneldiis                : F *! Use kernel DIIS in the inner loop (Boolean)    
kerneldiistype            : P *! Density mixing method (String)                 
kerneldiismax             : 10 *! Max number of kernels saved during kernel DII 
kerneldiismaxit           : 25 *! Max number of kernel DIIS iterations (Integer 
kerneldiisthres           : 1.000000000000000E-009 *! Density mixing convergenc 
kerneldiisliter           : 5 *! Number of linear mixing iterations (Integer)   
kerneldiiscin             : 0.900000000000000 *! Coefficient for the input kern 
kerneldiiscriteria        : 1000 *! Density mixing convergence criteria (String 
maxitngwfcg               : 60 *! Max number of NGWF conjugate gradients (CG) i 
ngwfcgtype                : NGWF_FLETCHER *! Type of CG coefficient for NGWF op 
ngwfcgmaxstep             : -8.00000000000000 *! Maximum length of trial step f 
eleccgmax                 : 0 *! Number of NGWF iterations to reset CG (Integer 
precondscheme             : TETER *! Recip-space preconditioning scheme (String 
kzero                     : 2.00000000000000 *! KE preconditioning parameter (D 
rprecond                  : 2.00000000000000 *! Radial cut-off for real-space p 
precondrecip              : T *! Recip-space KE preconditioning (Boolean)       
precondreal               : F *! Real-space KE preconditioning (Boolean)        
smoothscheme              : NONE *! Smoothing scheme for the NGWF gradients at  
rsmooth                   : 1.50000000000000      bohr *! Radius of the unshave 
ksmooth                   : 5.00000000000000 *! Characteristic wavelength of th 
occmix                    : 1.00000000000000 *! Mix fraction of occupancy preco 
kernelupdate              : F *! Update density kernel during NGWF line search  
kernelchristoffelupdate   : F *! Update density kernel during NGWF line search  
maxithotelling            : 50 *! Number of Hotelling iteration per NGWF change 
maxresidhotelling         : 1.000000000000000E-012 *! Max allowed value in Hote 
maxitngwfdiis             : 0 *! Max number of NGWF DIIS steps (Integer)        
ngwfdiissize              : 4 *! Max size of the DIIS iterative subspace (Integ 
ngwfdiisreset             : 8 *! Max number of iteration for the resetting of D 
ngwfdiismaxstep           : 2.00000000000000 *! Max length of trial step for NG 
ngwfthresholdorig         : 1.000000000000000E-004 *! NGWF convergence threshol 
elecenergytol             : -1.000000000000000E-003 hartree *! Tolerance on tot 
elecforcetol              : -1.000000000000000E-003 ha/bohr *! Tolerance on max 
ngwfmaxgrad               : -2.000000000000000E-005 *! Maximum permissible valu 
deltaeconv                : T *! Use consecutive energy gains as a criterion fo 
locpotintbatchsize        : 10 *! Size of NGWF in fftbox batch for locpot integ 
kineticintbatchsize       : 10 *! Size of NGWF in fftbox batch for kinetic inte 
densitybatchsize          : 10 *! Size of NGWF in fftbox batch for charge densi 
ngwfgradbatchsize         : 10 *! Size of NGWF in fftbox batch for NGWF gradien 
densethreshold            : 0.400000000000000 *! Threshold for matrix segment f 
commsgroupsize            : 4 *! Number of nodes in a group (determines comms e 
ovlpfornonlocal           : F *! Overlap sparsity for nonlocal (Boolean)        
usespacefillingcurve      : T *! Re-arrange atoms according to space-filling cu 
corehamdenskernguess      : T *! Initial guess for density kernel from core Ham 
checkatoms                : T *! Check atoms on top of each other (Boolean)     
locpotscheme              : FULL *! Scheme for evaluating local potential matri 
smoothprojectors          : -0.400000000000000 *! Halfwidth of Gaussian filter  
smoothlocpspot            : -0.400000000000000 *! Halfwidth of Gaussian filter  
oddpsincgrid              : F *! Force odd number of points in simcell psinc gr 
evenpsincgrid             : F *! Force even number of points in simcell psinc g 
realspaceprojectors       : F *! Whether to evaluate and store projectors in re 
outputdetail              : NORMAL *! Level of output detail (String)           
pawoutputdetail           : DEFAULT *! Level of output detail for PAW: BRIEF, N 
timingslevel              : 0 *! Level of timings output: 0(none) 1(nodes summa 
writeparams               : T *! Output runtime parameters at startup (Boolean) 
writeforces               : T *! Write ionic forces (Boolean)                   
writepositions            : T *! Write ionic positions each geometry or MD step 
writexyz                  : T *! Output coordinates in .xyz file (Boolean)      
printqc                   : T *! Print Quality Control information (Boolean)    
cubeformat                : F *! Allow .cube format for plot outputs (Boolean)  
dxformat                  : F *! Allow .dx format for plot outputs (Boolean)    
dxformatcoarse            : F *! Output only points on the coarse grid (Boolean 
dxformatdigits            : 7 *! Number of significant digits in .dx output (In 
grdformat                 : T *! Allow .grd format for plot outputs (Boolean)   
writedensityplot          : T *! Write the charge density in plotting format (B 
writengwfplot             : F *! Write NGWFs in plotting format (Boolean)       
writengwfgradplot         : F *! Write NGWF Gradients in plotting format (Boole 
writengwfradial           : F *! Write NGWFs radial distributions (Boolean)     
writengwfgradradial       : F *! Write NGWFs gradients radial distributions (Bo 
writeradialstep           : 5.000000000000000E-003 bohr *! Define the grid step 
writeradialsmear          : 1.000000000000000E-002 bohr *! Define the gaussian  
readdenskern              : F *! Read density kernel restart information (Boole 
writedenskern             : T *! Write density kernel restart information (Bool 
readtightboxngwfs         : F *! Read in universal tightbox NGWFs restart infor 
writetightboxngwfs        : T *! Write in universal tightbox NGWFs restart info 
writeconvergeddkngwfs     : F *! Only write Density Kernel and NGWFs upon conve 
readswngwfs               : F *! Read NGWFs restart information in spherical wa 
writeswngwfs              : F *! Write NGWFs restart information in spherical w 
writemaxl                 : 3 *! Maximum angular momentum number when writing i 
readmaxl                  : 3 *! Maximum angular momentum number when reading i 
extransw                  : 0 *! Maximum number of zeros of the sph Bessel func 
paw                       : F *! Uses a PAW construction to find correct core d 
finegridscale             : 2.00000000000000 *! Ratio of size of fine grid to s 
dblgridscale              : 2.00000000000000 *! Ratio of charge density / poten 
augfuncsrecip             : T *! Construct Augmentation functions in recip spac 
dispersion                : 1 *! Select dispersion correction (Integer)         
vdwdcoeff                 : -1.00000000000000 *! Replacement VDW damping coeffi 
hubbardmaxiter            : 0 *! Maximum number of DFT+U projector optimisation 
hubbardenergytol          : 1.000000000000000E-008 hartree *! Energy tolerance  
hubbardconvwin            : 2 *! Energy convergence window when using DFT+U pro 
hubbardprojmixing         : 0.000000000000000E+000 *! Proportion of old Hubbard 
hubbardfunctional         : 1 *! DFT+U energy functional to use (Integer)       
hubbardtensorcorr         : 1 *! DFT+U projector tensorial correction to use (I 
hubbardngwfspinthreshold  : 2.000000000000000E-005 *! NGWF RMS  gradient thresh 
coulombcutoffradius       : 0.000000000000000E+000 *! Radius of sphere or cylin 
coulombcutofflength       : 0.000000000000000E+000 *! Length of cylinder or wid 
coulombcutofftype         : NONE *! Type of cutoff coulomb interaction: NONE, S 
coulombcutoffwriteint     : F *! Write real-space cutoff Coulomb interaction sc 
pbccorrectioncutoff       : 0.000000000000000E+000 *! alpha*L cutoff parameter  
doproperties              : F *! Allow calculation of properties (Boolean)      
numeigenvalues            : 10 *! Number of energy and occupancy eigenvalues to 
homodensplot              : -1 *! Number of squared MOs to plot from HOMO and l 
lumodensplot              : -1 *! Number of squared MOs to plot from LUMO and h 
homoplot                  : 5 *! Number of MOs to plot from HOMO and lower (Int 
lumoplot                  : 5 *! Number of MOs to plot from LUMO and higher (In 
dossmear                  : 3.674932438755288E-003 hartree *! Half width of sme 
ldossmear                 : 3.674932438755288E-003 hartree *! Lorentzian broade 
popncalculate             : F *! Allow population analysis (Boolean)            
popnbondcutoff            : 5.66917840375065      bohr *! Bond length cutoff fo 
ngwfanalysis              : F *! Perform NGWF analysis (Boolean)                
polarisationcalculate     : F *! Allow calculation of polarisation (Boolean)    
spreadcalculate           : F *! Calculate spread of NGWFs (Boolean)            
geommodulusest            : 1.700000000000000E-002 ha/bohr**3 *! The estimated  
geomfrequencyest          : 7.600000000000000E-003 hartree *! The estimated ave 
geomenergytol             : 1.000000000000000E-006 hartree *! Geometry optimiza 
geomforcetol              : 2.000000000000000E-003 ha/bohr *! Geometry optimiza 
geomdisptol               : 5.000000000000000E-003 bohr *! Geometry optimizatio 
geommaxiter               : 2 *! Maximum number of geometry optimization iterat 
geomconvergencewin        : 2 *! Geometry optimization convergence tolerance wi 
geomcontinuation          : F *! Read information for continuation of a previou 
geombackupiter            : 1 *! Number of geometry optimisation iterations bet 
geomresetdkngwfsiter      : 6 *! Number of geom iterations between resets of ke 
geomreusedkngwfs          : F *! Re-use density kernel and NGWFs during geometr 
geomprintinvhessian       : F *! Write inverse Hessian to standard output (Bool 
geommethod                : CARTESIAN *! Method for geometry optimization (Stri 
tssearchmethod            : LSTQST *! Specifies method to be used for TS search 
tssearchlstqstprotocol    : LSTMAXIMUM *! Specifies LSTQST protocol (String)    
tssearchqstmaxiter        : 5 *! Specifies maximum number of QST steps (Integer 
tssearchcgmaxiter         : 20 *! Specifies maximum number of CG steps (Integer 
tssearchforcetol          : 5.000000000000000E-003 ha/bohr *! Force tolerance f 
tssearchdisptol           : 1.000000000000000E-002 bohr *! Displacement toleran 
mddeltat                  : 40.0000000000000      aut *! Molecular dynamics tim 
mdnumiter                 : 100 *! Maximum number of molecular dynamics iterati 
mdtemperature             : 9.500000000000000E-004 hartree *! Temperature for m 
mdalgorithm               : LEAPFROGVERLET *! Integration algorithm for molecul 
mdthermostat              : NONE *! Thermostat for molecular dynamics (String)  
mdcollisionfrequency      : 0.152000000000000      hartree *! Collision frequen 
mixdenskern               : 0 *! Number of coefficients used to build new guess 
mixngwfs                  : 0 *! Number of coefficients used to build new guess 
condreaddenskern          : F *! Read in conduction density kernel (Boolean)    
condreadtightboxngwfs     : F *! Read in universal tightbox conduction NGWFs (B 
condfixedshift            : F *! Fixed projected conduction Hamiltonian shift ( 
condcalcmaxeigen          : T *! Calculate maximum conduction Hamiltonian eigen 
condnumstates             : 0 *! Number of conduction states to be optimised fo 
condkernelcutoff          : 1000.00000000000 *! Conduction density kernel radiu 
condinitshift             : 0.000000000000000E+000 *! Initial shifting factor f 
condshiftbuffer           : 0.100000000000000 *! Additional buffer for updating 
condnumextrastates        : 0 *! Number of extra conduction states for initial  
condnumextraits           : 0 *! Number of NGWF iterations with extra conductio 
condplotjointorbitals     : T *! Plot orbitals in the joint basis following a c 
condplotvcorbitals        : T *! Plot orbitals in the val and cond NGWF basis s 
condcalcopticalspectra    : F *! Calculate matrix elements for optical absorpti 
condspeccalcmommatels     : T *! Calculate momentum matrix elements (default tr 
condspeccalcnonloccomm    : T *! Calculate nonlocal commutator for momentum mat 
condspeccontderiv         : T *! Calculate non-local commuator using continuous 
condspecnonloccommshift   : 1.000000000000000E-004 *! Finite difference shift f 
bskpointpathspacing       : 0.188972700000000      1/bohr *! K-point spacing al 
bsnumeigenvalues          : -1 *! Num of energy and occ. eigenvalues to print b 
bsunfold                  : 0 0 0 *! Number of times to unfold Brillouin zone i 
bsmethod                  : TB *! Method to use: 'KP' or 'TB' (String)          
dotddft                   : F *! Allow Time-Dependent DFT calculation (Boolean) 
tddftmaximumenergy        : 1.00000000000000      hartree *! Desired maximum of 
tddftresolution           : 1.000000000000000E-003 hartree *! Desired resolutio 
tddftpropagationmethod    : CRANKNICHOLSON *! Method used to integrate von Neum 
tddftsparsitylevel        : 0 *! Matrix sparsity when computing propagators e.g 
tddfttammdancoff          : F *! Invoke Tamm-Dancoff decoupling approximation ( 
tddftdipolekickstrength   : 0.0 0.0 0.0 *! Maximum allowed phase shift in TDDFT 
tddftxcfunctional         : LDA *! Exchange-correlation functional for TDDFT (S 
tddfthamiltonianmixing    : 0 *! Order of polynomial extrapolation to H(t + hal 
tddftdamping              : 0.000000000000000E+000 hartree *! Energy smearing w 
tddftenforcedidempotency  : F *! Project out at each timestep that part of chan 
tddftmaxithotelling       : 50 *! Number of Hotelling iteration per propagation 
tddftmaxresidhotelling    : 1.000000000000000E-018 *! Max allowed value in Hote 
tddftinvoverlapexact      : T *! Renew inverse overlap with O N^3 algorithm bef 
isimplicitsolvent         : F *! Use implicit solvent? (Boolean)                
issmearedionrep           : F *! Implicit solvent: use smeared ions for electro 
isincludecavitation       : F *! Implicit solvent: include cavitation energy (B 
isdensitythreshold        : 7.800000000000000E-004 *! Implicit solvent: rho_0 p 
issolvationbeta           : 1.30000000000000 *! Implicit solvent: beta paramete 
isbulkpermittivity        : 1.00000000000000 *! Implicit solvent: eps_inf param 
ismultigriddefecterrortol : 1.000000000000000E-002 *! Implicit solvent: stop cr 
ismultigriderrortol       : 1.000000000000000E-005 *! Implicit solvent: stop cr 
issmearedionwidth         : 0.800000000000000 *! Implicit solvent: Width of Gau 
issurfacethickness        : 2.000000000000000E-004 *! Implicit solvent: thickne 
issolventsurfacetension   : 4.762400000000000E-005 ha/bohr**2 *! Implicit solve 
ismultigridmaxiters       : 100 *! Implicit solvent: max number of iterations i 
ismultigridnlevels        : 4 *! Implicit solvent: number of levels in multigri 
isdiscretizationorder     : 8 *! Implicit solvent: discretization order (2nd, 4 
isbccoarseness            : 5 *! Implicit solvent: controls boundary condition  
isbcsurfacecoarseness     : 1 *! Implicit solvent: controls boundary condition  
ischecksolvenergygrad     : F *! Implicit solvent: sanity check the energy grad 
issolvationmethod         : DIRECT *! Implicit solvent: direct or corrective me 
isdielectricmodel         : FIX_INITIAL *! Implicit solvent: how the cavity is  
isdielectricfunction      : FGF *! Implicit solvent: how the cavity is determin 
issolvationoutputdetail   : NONE *! Implicit solvent: controls extra output (St 
openbcionion              : F *! Force open BCs in ion-ion energy (Boolean)     
openbchartree             : F *! Force open BCs in Hartree potential (Boolean)  
openbcpspot               : F *! Force open BCs in local pseudopotential (Boole 
openbcpspotfinetunenptsx  : 100000 *! Open BCs in local pseudo, npts_x paramete 
openbcpspotfinetunealpha  : 0.300000000000000 *! Open BCs in local pseudo, alph 
openbcpspotfinetunef      : -1 *! Open BCs in local pseudo, fineness parameter  
%block positionsabs       : *! Cartesian positions for each atom (Block)        
C1 12.06103311501276      14.79618933989781      12.56968765073237              
C1 13.38377349568522      12.50503649893887      12.56968765073237              
C1 16.02941592614548      12.50506072778843      12.56968765073237              
C1 17.35214135134191      14.79618924949030      12.56968765073237              
C1 16.02940103348407      17.08734207968236      12.56968765073237              
C1 13.38375860425874      17.08731790320416      12.56968765073237              
H1 10.26577551515831      14.79617327560041      12.56968765073237              
H1 12.48620436333100      10.95033471077128      12.56968765073237              
H1 16.92699430309699      10.95034477087888      12.56968765073237              
H1 19.14739895130389      14.79620529985227      12.56968765073237              
H1 16.92697020499263      18.64204382097470      12.56968765073237              
H1 12.48618024943565      18.64203389332486      12.56968765073237              
C1 11.90269841548432      14.65205129002439      16.72953095050915              
C1 13.22543879615679      12.36089844906545      16.72953095050915              
C1 15.87108122661704      12.36092267791500      16.72953095050915              
C1 17.19380665181347      14.65205119961687      16.72953095050915              
C1 15.87106633395565      16.94320402980893      16.72953095050915              
C1 13.22542390473030      16.94317985333074      16.72953095050915              
H1 10.10744081562988      14.65203522572698      16.72953095050915              
H1 12.32786966380257      10.80619666089786      16.72953095050915              
H1 16.76865960356855      10.80620672100546      16.72953095050915              
H1 18.98906425177546      14.65206724997884      16.72953095050915              
H1 16.76863550546419      18.49790577110127      16.72953095050915              
H1 12.32784554990721      18.49789584345142      16.72953095050915              
%endblock positionsabs    : *! Cartesian positions for each atom (Block)        
%block latticecart        : *! The simulation cell lattice vectors (Block)      
28.345894694999998       0.000000000000000       0.000000000000000              
0.000000000000000      28.345894694999998       0.000000000000000               
0.000000000000000       0.000000000000000      28.345894694999998               
%endblock latticecart     : *! The simulation cell lattice vectors (Block)      
%block species            : *! Species information (symbol, atomic number, numb 
C1 C 6 4 6.5                                                                    
H1 H 1 1 6.0                                                                    
%endblock species         : *! Species information (symbol, atomic number, numb 
%block speciespot         : *! Pseudopotential name for each species (Block)    
C1 "../../pseudo/carbon.recpot"                                                 
H1 "../../pseudo/hydrogen.recpot"                                               
%endblock speciespot      : *! Pseudopotential name for each species (Block)    
-------------------------------------------------------------------------------
-------------------------------------------------------------------------------


================================================================================
<<<<<<<<<<<<<<<<<<<< Starting ONETEP Geometry Optimisation >>>>>>>>>>>>>>>>>>>>>
================================================================================

 Geometry Optimisation: output file is "benzene_dimer_vdw.geom"
 
 
                           -------------------------------
                                     Cell Contents
                           -------------------------------
 
            xxxxxxxxxxxxxxxxxxxxxxxxxxxxxxxxxxxxxxxxxxxxxxxxxxxxxxxxxxxx
            x  Element    Atom      Absolute co-ordinates of atoms     x
            x            Number        x           y           z       x
            x----------------------------------------------------------x
            x    C         1       12.061033   14.796189   12.569688   x
            x    C         2       13.383773   12.505036   12.569688   x
            x    C         3       16.029416   12.505061   12.569688   x
            x    C         4       17.352141   14.796189   12.569688   x
            x    C         5       16.029401   17.087342   12.569688   x
            x    C         6       13.383759   17.087318   12.569688   x
            x    H         7       10.265776   14.796173   12.569688   x
            x    H         8       12.486204   10.950335   12.569688   x
            x    H         9       16.926994   10.950345   12.569688   x
            x    H        10       19.147399   14.796205   12.569688   x
            x    H        11       16.926970   18.642044   12.569688   x
            x    H        12       12.486180   18.642034   12.569688   x
            x    C        13       11.902698   14.652051   16.729531   x
            x    C        14       13.225439   12.360898   16.729531   x
            x    C        15       15.871081   12.360923   16.729531   x
            x    C        16       17.193807   14.652051   16.729531   x
            x    C        17       15.871066   16.943204   16.729531   x
            x    C        18       13.225424   16.943180   16.729531   x
            x    H        19       10.107441   14.652035   16.729531   x
            x    H        20       12.327870   10.806197   16.729531   x
            x    H        21       16.768660   10.806207   16.729531   x
            x    H        22       18.989064   14.652067   16.729531   x
            x    H        23       16.768636   18.497906   16.729531   x
            x    H        24       12.327846   18.497896   16.729531   x
            xxxxxxxxxxxxxxxxxxxxxxxxxxxxxxxxxxxxxxxxxxxxxxxxxxxxxxxxxxxx
 
<<<<<<<<<<<<<<<<<<<<<<<<< Pseudopotential information >>>>>>>>>>>>>>>>>>>>>>>>>
File: ../../pseudo/carbon.recpot [ 2001 points up to Gmax=  52.9 (1/bohr)]
  Atomic number:  6;  ionic charge:  4.000000
    Shell 1: l = 0; rc = 1.48 bohr
File: ../../pseudo/hydrogen.recpot [ 2001 points up to Gmax=  52.9 (1/bohr)]
  Atomic number:  1;  ionic charge:  1.000000
    Local potential
<<<<<<<<<<<<<<<<<<<<<<<<<<<<<<<<<<<<<<< >>>>>>>>>>>>>>>>>>>>>>>>>>>>>>>>>>>>>>>

------------------------- Atom counting information ---------------------------
Symbol    Natoms    Nngwfs    Nprojs
  C         12        48        12
  H         12        12         0
.......   ......    ......    ......
Totals:     24        60        12
-------------------------------------------------------------------------------
 
Determining parallel strategy ...... done

Calculating Ewald energy ...          194.570756 Hartree
Dispersion Correction Energy: -0.19362050E-01 Hartree

Basis initialisation ...... done

============================== PSINC grid sizes ================================
                      Simulation cell:   35 x  35 x  35
                              FFT-box:   35 x  35 x  35
                                  PPD:    5 x   5 x   5
================================================================================

********************** Fourier parallelisation information *********************
       Coarse grid (whole simulation cell) dimensions:     35    35    35
          Real-space ('12') slabs/node (min max mean):      8     9     8
         Recip-space ('23') slabs/node (min max mean):      4     5     4
********************************************************************************

********************** Fourier parallelisation information *********************
       Double grid (whole simulation cell) dimensions:     70    70    70
          Real-space ('12') slabs/node (min max mean):     17    18    17
         Recip-space ('23') slabs/node (min max mean):      9     9     9
********************************************************************************

=========================== Sparse matrix information ==========================
                        Overlap matrix filling: 100.00%
                        Density kernel filling: 100.00%
              NGWF-Proj overlap matrix filling:  96.67%
                    Hamiltonian matrix filling: 100.00%
                  NGWF diagonal matrix filling:   5.67%
                             KS matrix filling: 100.00% 
                           KSKS matrix filling: 100.00% 
================================================================================

Sparse matrix initialisation ... done
NGWF initialisation ...... done

Up spin density kernel initialisation ...... done

Writing density kernel to file "benzene_dimer_vdw.dkn" ... done
................................................................................
<<<<<<<<<<<<<<<< Penalty functional density kernel optimisation >>>>>>>>>>>>>>>>
~~~~~~~~~~~~~~~~~~~~~~~~~~~~~~~~~~~~~~~~~~~~~~~~~~~~~~~~~~~~~~~~~~~~~~~~~~~~~~~~
iter|       energy      |   rms grad  |  commutator |LScoef|CGcoef|      Ne    |
 1    -68.27206288125258 0.10717838139 0.04601960513 0.0280  0.000   60.00000000
 2    -69.43083189674685 0.08210760650 0.04553973390 2.0478 -0.754   60.00000000
WARNING: internal_polak_cg_coeff =  7.32365
WARNING: setting internal_polak_cg_coeff to zero
 3    -70.07867880643781 0.08335498467 0.02546072237 0.0407  0.000   60.00000000

======================== Penalty functional minimisation =======================
   Final total energy     :     -71.277920048425
   Final penalty energy   :       0.815150849921
   RMS occupancy error    :       0.058279
   Occupancy bounds       : [-0.075, 1.088]
================================================================================

Finished density kernel iterations (   3)

Writing density kernel to file "benzene_dimer_vdw.dkn" ... done

################################################################################
########################### NGWF CG iteration  001 #############################
################################################################################
****** Reciprocal space K.E. preconditioning with k_zero =  2.0000 a0^-1 *******
................................................................................
<<<<<<<<<<<<<< LNV (Original version) density kernel optimisation >>>>>>>>>>>>>>
~~~~~~~~~~~~~~~~~~~~~~~~~~~~~~~~~~~~~~~~~~~~~~~~~~~~~~~~~~~~~~~~~~~~~~~~~~~~~~~~
iter|       energy      |  rms DeltaK |  commutator |LScoef|CGcoef|      Ne    |
 1    -68.60993156915769 0.00000000000 0.01486270596 0.3678  0.000   60.00000000
 2    -68.63170161107409 0.00484836790 0.00348816644 0.8970  0.029   60.00000000
 3    -68.63326285968644 0.00166519245 0.00183301608 0.0000  0.000   60.00000000
Finished density kernel iterations (   3)

Writing density kernel to file "benzene_dimer_vdw.dkn" ... done

------------------------------- NGWF line search -------------------------------
RMS gradient                =       0.01328919799497
Trial step length           =               0.122474
Gradient along search dir.  =        -21.96656060415
Functional at step 0        =     -68.63326285968644
Functional at step 1        =     -70.95537811590093
Functional predicted        =     -73.54730185706589
Selected quadratic step     =               0.447411
--------------------------- NGWF line search finished --------------------------
                                               
Writing NGWFs to file "benzene_dimer_vdw.tightbox_ngwfs"....  done

################################################################################
########################### NGWF CG iteration  002 #############################
################################################################################
****** Reciprocal space K.E. preconditioning with k_zero =  2.0000 a0^-1 *******
................................................................................
<<<<<<<<<<<<<< LNV (Original version) density kernel optimisation >>>>>>>>>>>>>>
~~~~~~~~~~~~~~~~~~~~~~~~~~~~~~~~~~~~~~~~~~~~~~~~~~~~~~~~~~~~~~~~~~~~~~~~~~~~~~~~
iter|       energy      |  rms DeltaK |  commutator |LScoef|CGcoef|      Ne    |
 1    -73.31304251608958 0.00000000000 0.02189704653 0.4984  0.000   60.00000000
 2    -73.39335286961732 0.01109766175 0.00469832052 0.5798  0.058   60.00000000
 3    -73.39878560850423 0.00337019348 0.00188973547 0.0000  0.000   60.00000000
Finished density kernel iterations (   3)

Writing density kernel to file "benzene_dimer_vdw.dkn" ... done

------------------------------- NGWF line search -------------------------------
RMS gradient                =       0.00450156741454
Trial step length           =               0.234086
Gradient along search dir.  =         -2.52053095719
Functional at step 0        =     -73.39878560850423
Functional at step 1        =     -73.78728038907846
Functional predicted        =     -73.83064541847456
Selected quadratic step     =               0.342674
--------------------------- NGWF line search finished --------------------------
                                               
Writing NGWFs to file "benzene_dimer_vdw.tightbox_ngwfs"....  done

################################################################################
########################### NGWF CG iteration  003 #############################
################################################################################
****** Reciprocal space K.E. preconditioning with k_zero =  2.0000 a0^-1 *******
................................................................................
<<<<<<<<<<<<<< LNV (Original version) density kernel optimisation >>>>>>>>>>>>>>
~~~~~~~~~~~~~~~~~~~~~~~~~~~~~~~~~~~~~~~~~~~~~~~~~~~~~~~~~~~~~~~~~~~~~~~~~~~~~~~~
iter|       energy      |  rms DeltaK |  commutator |LScoef|CGcoef|      Ne    |
 1    -73.82876085013694 0.00000000000 0.00390878533 0.5793  0.000   60.00000000
 2    -73.83115244753056 0.00190770154 0.00178358633 1.0950  0.151   60.00000000
 3    -73.83183760707914 0.00135904691 0.00159709483 0.0000  0.000   60.00000000
Finished density kernel iterations (   3)

Writing density kernel to file "benzene_dimer_vdw.dkn" ... done

------------------------------- NGWF line search -------------------------------
RMS gradient                =       0.00134547814372
Trial step length           =               0.283223
Gradient along search dir.  =         -0.22517377756
Functional at step 0        =     -73.83183760707914
Functional at step 1        =     -73.87063018798767
Functional predicted        =     -73.87253895544761
Selected quadratic step     =               0.361511
--------------------------- NGWF line search finished --------------------------
                                               
Writing NGWFs to file "benzene_dimer_vdw.tightbox_ngwfs"....  done

################################################################################
########################### NGWF CG iteration  004 #############################
################################################################################
****** Reciprocal space K.E. preconditioning with k_zero =  2.0000 a0^-1 *******
................................................................................
<<<<<<<<<<<<<< LNV (Original version) density kernel optimisation >>>>>>>>>>>>>>
~~~~~~~~~~~~~~~~~~~~~~~~~~~~~~~~~~~~~~~~~~~~~~~~~~~~~~~~~~~~~~~~~~~~~~~~~~~~~~~~
iter|       energy      |  rms DeltaK |  commutator |LScoef|CGcoef|      Ne    |
 1    -73.87077038169201 0.00000000000 0.00243262664 0.6191  0.000   60.00000000
 2    -73.87162132200953 0.00121640388 0.00136163004 0.7856  0.268   60.00000000
 3    -73.87191049546362 0.00072114894 0.00122110030 0.0000  0.000   60.00000000
Finished density kernel iterations (   3)

Writing density kernel to file "benzene_dimer_vdw.dkn" ... done

------------------------------- NGWF line search -------------------------------
RMS gradient                =       0.00050121705363
Trial step length           =               0.319981
Gradient along search dir.  =         -0.03124756624
Functional at step 0        =     -73.87191049546362
Functional at step 1        =     -73.87653960135941
Functional predicted        =     -73.87656512651316
Selected quadratic step     =               0.297920
--------------------------- NGWF line search finished --------------------------
                                               
Writing NGWFs to file "benzene_dimer_vdw.tightbox_ngwfs"....  done

################################################################################
########################### NGWF CG iteration  005 #############################
################################################################################
****** Reciprocal space K.E. preconditioning with k_zero =  2.0000 a0^-1 *******
................................................................................
<<<<<<<<<<<<<< LNV (Original version) density kernel optimisation >>>>>>>>>>>>>>
~~~~~~~~~~~~~~~~~~~~~~~~~~~~~~~~~~~~~~~~~~~~~~~~~~~~~~~~~~~~~~~~~~~~~~~~~~~~~~~~
iter|       energy      |  rms DeltaK |  commutator |LScoef|CGcoef|      Ne    |
 1    -73.87639206174960 0.00000000000 0.00129809382 0.6506  0.000   60.00000000
 2    -73.87661653770563 0.00054723298 0.00103596310 1.3609  0.612   60.00000000
 3    -73.87690352999002 0.00089501345 0.00112554445 0.0000  0.000   60.00000000
Finished density kernel iterations (   3)

Writing density kernel to file "benzene_dimer_vdw.dkn" ... done

------------------------------- NGWF line search -------------------------------
WARNING: slope along search direction is positive:    0.421425E-02
         Resetting conjugate gradients!
WARNING: slope along search direction is still positive.
         Reversing search direction!!
RMS gradient                =       0.00018406779302
Trial step length           =               0.308753
Gradient along search dir.  =         -0.00421424839
Functional at step 0        =     -73.87690352999002
Functional at step 1        =     -73.87719754931030
Functional predicted        =     -73.87732378432472
Selected quadratic step     =               0.199445
--------------------------- NGWF line search finished --------------------------
                                               
Writing NGWFs to file "benzene_dimer_vdw.tightbox_ngwfs"....  done

################################################################################
########################### NGWF CG iteration  006 #############################
################################################################################
****** Reciprocal space K.E. preconditioning with k_zero =  2.0000 a0^-1 *******
................................................................................
<<<<<<<<<<<<<< LNV (Original version) density kernel optimisation >>>>>>>>>>>>>>
~~~~~~~~~~~~~~~~~~~~~~~~~~~~~~~~~~~~~~~~~~~~~~~~~~~~~~~~~~~~~~~~~~~~~~~~~~~~~~~~
iter|       energy      |  rms DeltaK |  commutator |LScoef|CGcoef|      Ne    |
 1    -73.87728691077103 0.00000000000 0.00144374609 0.5965  0.000   60.00000000
 2    -73.87759716836806 0.00064331930 0.00072643932 0.7256  0.218   60.00000000
 3    -73.87767952303494 0.00037565789 0.00063680904 0.0000  0.000   60.00000000
Finished density kernel iterations (   3)

Writing density kernel to file "benzene_dimer_vdw.dkn" ... done

           ........................................................
           | *** NGWF optimisation converged ***                  |
           | RMS NGWF gradient =    0.00006899976644              |
           | Criteria satisfied:                                  |
           | -> RMS NGWF gradient lower than set threshold.       |
           ========================================================

================================================================================
           ---------------- ENERGY COMPONENTS (Eh) ----------------
           | Kinetic                    :       54.84997478890743 |
           | Pseudopotential (local)    :     -557.25678476191229 |
           | Pseudopotential (non-local):        9.96527273947602 |
           | Hartree                    :      249.78541151769667 |
           | Exchange-correlation       :      -25.77294731297293 |
           | Ewald                      :      194.57075555615944 |
           | Dispersion Correction      :       -0.01936205038928 |
           | Total                      :      -73.87767952303489 |
           --------------------------------------------------------
           Integrated density           :       60.00000000000007
================================================================================


                    <<<<< CALCULATION SUMMARY >>>>>
|ITER|    RMS GRADIENT   |     TOTAL ENERGY    |   step   |     Epredicted      
   1     0.01328919799497    -68.63326285968644   0.447411    -73.54730185706589
   2     0.00450156741454    -73.39878560850423   0.342674    -73.83064541847456
   3     0.00134547814372    -73.83183760707914   0.361511    -73.87253895544761
   4     0.00050121705363    -73.87191049546362   0.297920    -73.87656512651316
   5     0.00018406779302    -73.87690352999002   0.199445    -73.87732378432472
   6     0.00006899976644    -73.87767952303494  <-- CG                         
 
<QC>        [NGWF iterations]:        6
<QC>           [total_energy]:      -73.87767952
<QC>                     [F0]:      -73.87690353
<QC>                     [F1]:      -73.87719755
<QC>                     [F2]:        0.00000000
<QC>   [predicted_functional]:      -73.87732378
<QC>           [rms_gradient]:        0.000068999766
<QC>                 [G_init]:       -0.004214248387
<QC>        [quadratic_coeff]:        0.199445
<QC>            [cubic_coeff]:        0.000000
<QC>               [cg_coeff]:        0.000000
<QC>           [trial_length]:        0.308753

********************* Unconstrained **********************
************************* Forces *************************
*                                                        *
* Element  Atom         Cartesian components (Eh/a)      *
* ------------------------------------------------------ *
*                       x            y            z      *
*                                                        *
*    C       1      0.12760696   0.01252073  -0.06664958 *
*    C       2     -0.00278892   0.10563474  -0.06427685 *
*    C       3     -0.01037158   0.10643877  -0.06774755 *
*    C       4     -0.10992416   0.01134597  -0.06883510 *
*    C       5     -0.01423302  -0.09057780  -0.06885004 *
*    C       6      0.00194890  -0.09032537  -0.06763073 *
*    H       7     -0.15653216  -0.00341725   0.00069625 *
*    H       8     -0.08237652  -0.12437958   0.00027304 *
*    H       9      0.08585102  -0.12579100   0.00052185 *
*    H      10      0.16488372  -0.00347405   0.00003730 *
*    H      11      0.08670219   0.12164966  -0.00018742 *
*    H      12     -0.08291167   0.12002180   0.00040691 *
*    C      13      0.10932693  -0.00258483   0.06673997 *
*    C      14      0.00690840   0.10135400   0.06603074 *
*    C      15     -0.00958150   0.10096321   0.06568084 *
*    C      16     -0.11685024  -0.00223961   0.06474290 *
*    C      17     -0.00780348  -0.11044061   0.06296225 *
*    C      18      0.00540895  -0.11049600   0.06553200 *
*    H      19     -0.16053817  -0.00261804   0.00192045 *
*    H      20     -0.08407713  -0.12665949   0.00224298 *
*    H      21      0.08654302  -0.12576909   0.00167793 *
*    H      22      0.16063607  -0.00270488   0.00134203 *
*    H      23      0.08528430   0.12029402   0.00182144 *
*    H      24     -0.08311189   0.12125471   0.00154838 *
*                                                        *
**********************************************************
* TOTAL:            0.00000000   0.00000000   0.00000000 *
**********************************************************
 <QC>    [total_force(1,1)]:        0.127606958614
 <QC>    [total_force(1,2)]:       -0.002788923004
 <QC>    [total_force(1,3)]:       -0.010371583608
 <QC>    [total_force(1,4)]:       -0.109924161858
 <QC>    [total_force(1,5)]:       -0.014233017335
 <QC>    [total_force(1,6)]:        0.001948898673
 <QC>    [total_force(1,7)]:       -0.156532162373
 <QC>    [total_force(1,8)]:       -0.082376520244
 <QC>    [total_force(1,9)]:        0.085851022052
 <QC>    [total_force(1,10)]:        0.164883720645
 <QC>    [total_force(1,11)]:        0.086702188563
 <QC>    [total_force(1,12)]:       -0.082911674338
 <QC>    [total_force(1,13)]:        0.109326933449
 <QC>    [total_force(1,14)]:        0.006908399681
 <QC>    [total_force(1,15)]:       -0.009581502959
 <QC>    [total_force(1,16)]:       -0.116850242290
 <QC>    [total_force(1,17)]:       -0.007803479353
 <QC>    [total_force(1,18)]:        0.005408948114
 <QC>    [total_force(1,19)]:       -0.160538172003
 <QC>    [total_force(1,20)]:       -0.084077130083
 <QC>    [total_force(1,21)]:        0.086543022722
 <QC>    [total_force(1,22)]:        0.160636066133
 <QC>    [total_force(1,23)]:        0.085284299405
 <QC>    [total_force(1,24)]:       -0.083111888601
 <QC>    [total_force(2,1)]:        0.012520728478
 <QC>    [total_force(2,2)]:        0.105634743975
 <QC>    [total_force(2,3)]:        0.106438770314
 <QC>    [total_force(2,4)]:        0.011345972438
 <QC>    [total_force(2,5)]:       -0.090577799145
 <QC>    [total_force(2,6)]:       -0.090325373337
 <QC>    [total_force(2,7)]:       -0.003417252384
 <QC>    [total_force(2,8)]:       -0.124379575067
 <QC>    [total_force(2,9)]:       -0.125791002744
 <QC>    [total_force(2,10)]:       -0.003474046025
 <QC>    [total_force(2,11)]:        0.121649660994
 <QC>    [total_force(2,12)]:        0.120021796606
 <QC>    [total_force(2,13)]:       -0.002584826041
 <QC>    [total_force(2,14)]:        0.101353999212
 <QC>    [total_force(2,15)]:        0.100963205515
 <QC>    [total_force(2,16)]:       -0.002239613948
 <QC>    [total_force(2,17)]:       -0.110440611315
 <QC>    [total_force(2,18)]:       -0.110496002470
 <QC>    [total_force(2,19)]:       -0.002618035220
 <QC>    [total_force(2,20)]:       -0.126659486804
 <QC>    [total_force(2,21)]:       -0.125769094362
 <QC>    [total_force(2,22)]:       -0.002704881160
 <QC>    [total_force(2,23)]:        0.120294015927
 <QC>    [total_force(2,24)]:        0.121254706565
 <QC>    [total_force(3,1)]:       -0.066649576796
 <QC>    [total_force(3,2)]:       -0.064276851529
 <QC>    [total_force(3,3)]:       -0.067747549692
 <QC>    [total_force(3,4)]:       -0.068835101067
 <QC>    [total_force(3,5)]:       -0.068850041044
 <QC>    [total_force(3,6)]:       -0.067630727968
 <QC>    [total_force(3,7)]:        0.000696250059
 <QC>    [total_force(3,8)]:        0.000273036737
 <QC>    [total_force(3,9)]:        0.000521847993
 <QC>    [total_force(3,10)]:        0.000037295521
 <QC>    [total_force(3,11)]:       -0.000187424409
 <QC>    [total_force(3,12)]:        0.000406911204
 <QC>    [total_force(3,13)]:        0.066739972769
 <QC>    [total_force(3,14)]:        0.066030739055
 <QC>    [total_force(3,15)]:        0.065680844869
 <QC>    [total_force(3,16)]:        0.064742902804
 <QC>    [total_force(3,17)]:        0.062962252298
 <QC>    [total_force(3,18)]:        0.065531996717
 <QC>    [total_force(3,19)]:        0.001920453563
 <QC>    [total_force(3,20)]:        0.002242984458
 <QC>    [total_force(3,21)]:        0.001677928293
 <QC>    [total_force(3,22)]:        0.001342032656
 <QC>    [total_force(3,23)]:        0.001821444416
 <QC>    [total_force(3,24)]:        0.001548379093
 
                           -------------------------------
                                     Cell Contents
                           -------------------------------
 
            xxxxxxxxxxxxxxxxxxxxxxxxxxxxxxxxxxxxxxxxxxxxxxxxxxxxxxxxxxxx
            x  Element    Atom      Absolute co-ordinates of atoms     x
            x            Number        x           y           z       x
            x----------------------------------------------------------x
            x    C         1       12.061033   14.796189   12.569688   x
            x    C         2       13.383773   12.505036   12.569688   x
            x    C         3       16.029416   12.505061   12.569688   x
            x    C         4       17.352141   14.796189   12.569688   x
            x    C         5       16.029401   17.087342   12.569688   x
            x    C         6       13.383759   17.087318   12.569688   x
            x    H         7       10.265776   14.796173   12.569688   x
            x    H         8       12.486204   10.950335   12.569688   x
            x    H         9       16.926994   10.950345   12.569688   x
            x    H        10       19.147399   14.796205   12.569688   x
            x    H        11       16.926970   18.642044   12.569688   x
            x    H        12       12.486180   18.642034   12.569688   x
            x    C        13       11.902698   14.652051   16.729531   x
            x    C        14       13.225439   12.360898   16.729531   x
            x    C        15       15.871081   12.360923   16.729531   x
            x    C        16       17.193807   14.652051   16.729531   x
            x    C        17       15.871066   16.943204   16.729531   x
            x    C        18       13.225424   16.943180   16.729531   x
            x    H        19       10.107441   14.652035   16.729531   x
            x    H        20       12.327870   10.806197   16.729531   x
            x    H        21       16.768660   10.806207   16.729531   x
            x    H        22       18.989064   14.652067   16.729531   x
            x    H        23       16.768636   18.497906   16.729531   x
            x    H        24       12.327846   18.497896   16.729531   x
            xxxxxxxxxxxxxxxxxxxxxxxxxxxxxxxxxxxxxxxxxxxxxxxxxxxxxxxxxxxx
 

 BFGS: continuation file name is "benzene_dimer_vdw.continuation"
 BFGS: finished iteration   0  with enthalpy= -7.387767952303E+001 Ha
  
 +-----------+-----------------+-----------------+------------+-----+ <-- BFGS
 | Parameter |      value      |    tolerance    |    units   | OK? | <-- BFGS
 +-----------+-----------------+-----------------+------------+-----+ <-- BFGS
 |  dE/ion   |   0.000000E+000 |   1.000000E-006 |         Ha | No  | <-- BFGS
 |  |F|max   |   1.649203E-001 |   2.000000E-003 |    Ha/Bohr | No  | <-- BFGS
 |  |dR|max  |   0.000000E+000 |   5.000000E-003 |       Bohr | No  | <-- BFGS
 +-----------+-----------------+-----------------+------------+-----+ <-- BFGS
  

================================================================================
 Starting BFGS iteration    1 ...
================================================================================
 Writing xyz coordinates to file "benzene_dimer_vdw.xyz" ... done

 Writing continuation file "benzene_dimer_vdw.continuation" ...done
 Backing up NGWFs to file "benzene_dimer_vdw.tightbox_ngwfs.bfgs_back" ... done
 Backing up density kernel to file "benzene_dimer_vdw.dkn.bfgs_back" ... done
  
 +------------+-------------+-------------+-----------------+ <-- min BFGS
 |    Step    |   lambda    |   F.delta   |    enthalpy     | <-- min BFGS
 +------------+-------------+-------------+-----------------+ <-- min BFGS
 |  previous  |     0.00000 |    0.690845 |      -73.877680 | <-- min BFGS
 +------------+-------------+-------------+-----------------+ <-- min BFGS
  

--------------------------------------------------------------------------------
 BFGS: starting iteration   1 with trial guess (lambda=    1.000000)
--------------------------------------------------------------------------------
 
                           -------------------------------
                                     Cell Contents
                           -------------------------------
 
            xxxxxxxxxxxxxxxxxxxxxxxxxxxxxxxxxxxxxxxxxxxxxxxxxxxxxxxxxxxx
            x  Element    Atom      Absolute co-ordinates of atoms     x
            x            Number        x           y           z       x
            x----------------------------------------------------------x
            x    C         1       12.247221   14.814458   12.472441   x
            x    C         2       13.379704   12.659165   12.475903   x
            x    C         3       16.014283   12.660363   12.470839   x
            x    C         4       17.191754   14.812744   12.469252   x
            x    C         5       16.008634   16.955182   12.469230   x
            x    C         6       13.386602   16.955527   12.471009   x
            x    H         7       10.037384   14.791187   12.570704   x
            x    H         8       12.366011   10.768856   12.570086   x
            x    H         9       17.052257   10.766806   12.570449   x
            x    H        10       19.387976   14.791136   12.569742   x
            x    H        11       17.053475   18.819540   12.569414   x
            x    H        12       12.365206   18.817154   12.570281   x
            x    C        13       12.062214   14.648280   16.826909   x
            x    C        14       13.235519   12.508781   16.825875   x
            x    C        15       15.857101   12.508235   16.825364   x
            x    C        16       17.023314   14.648783   16.823996   x
            x    C        17       15.859680   16.782063   16.821397   x
            x    C        18       13.233316   16.781958   16.825147   x
            x    H        19        9.873204   14.648215   16.732333   x
            x    H        20       12.205195   10.621391   16.732804   x
            x    H        21       16.894932   10.622700   16.731979   x
            x    H        22       19.223444   14.648121   16.731489   x
            x    H        23       16.893072   18.673424   16.732189   x
            x    H        24       12.206579   18.674815   16.731790   x
            xxxxxxxxxxxxxxxxxxxxxxxxxxxxxxxxxxxxxxxxxxxxxxxxxxxxxxxxxxxx
 
<<<<<<<<<<<<<<<<<<<<<<<<< Pseudopotential information >>>>>>>>>>>>>>>>>>>>>>>>>
File: ../../pseudo/carbon.recpot [ 2001 points up to Gmax=  52.9 (1/bohr)]
  Atomic number:  6;  ionic charge:  4.000000
    Shell 1: l = 0; rc = 1.48 bohr
File: ../../pseudo/hydrogen.recpot [ 2001 points up to Gmax=  52.9 (1/bohr)]
  Atomic number:  1;  ionic charge:  1.000000
    Local potential
<<<<<<<<<<<<<<<<<<<<<<<<<<<<<<<<<<<<<<< >>>>>>>>>>>>>>>>>>>>>>>>>>>>>>>>>>>>>>>

------------------------- Atom counting information ---------------------------
Symbol    Natoms    Nngwfs    Nprojs
  C         12        48        12
  H         12        12         0
.......   ......    ......    ......
Totals:     24        60        12
-------------------------------------------------------------------------------
 
Determining parallel strategy ...... done

Calculating Ewald energy ...          193.424773 Hartree
Dispersion Correction Energy: -0.19076160E-01 Hartree

Basis initialisation ...... done

============================== PSINC grid sizes ================================
                      Simulation cell:   35 x  35 x  35
                              FFT-box:   35 x  35 x  35
                                  PPD:    5 x   5 x   5
================================================================================

********************** Fourier parallelisation information *********************
       Coarse grid (whole simulation cell) dimensions:     35    35    35
          Real-space ('12') slabs/node (min max mean):      8     9     8
         Recip-space ('23') slabs/node (min max mean):      4     5     4
********************************************************************************

********************** Fourier parallelisation information *********************
       Double grid (whole simulation cell) dimensions:     70    70    70
          Real-space ('12') slabs/node (min max mean):     17    18    17
         Recip-space ('23') slabs/node (min max mean):      9     9     9
********************************************************************************

=========================== Sparse matrix information ==========================
                        Overlap matrix filling: 100.00%
                        Density kernel filling: 100.00%
              NGWF-Proj overlap matrix filling:  95.97%
                    Hamiltonian matrix filling: 100.00%
                  NGWF diagonal matrix filling:   5.67%
                             KS matrix filling: 100.00% 
                           KSKS matrix filling: 100.00% 
================================================================================

Sparse matrix initialisation ... done
NGWF initialisation ...... done

Up spin density kernel initialisation ...... done

Writing density kernel to file "benzene_dimer_vdw.dkn" ... done
................................................................................
<<<<<<<<<<<<<<<< Penalty functional density kernel optimisation >>>>>>>>>>>>>>>>
~~~~~~~~~~~~~~~~~~~~~~~~~~~~~~~~~~~~~~~~~~~~~~~~~~~~~~~~~~~~~~~~~~~~~~~~~~~~~~~~
iter|       energy      |   rms grad  |  commutator |LScoef|CGcoef|      Ne    |
 1    -68.58198891359284 0.10984010924 0.05861584824 0.0923  0.000   60.00000000
 2    -72.58568483768170 0.02452566076 0.05475808013 0.2417  0.015   60.00000000
 3    -73.06136638488391 0.02684327421 0.03144482602 0.1368  1.178   60.00000000

======================== Penalty functional minimisation =======================
   Final total energy     :     -73.351705920394
   Final penalty energy   :       2.089263561343
   RMS occupancy error    :       0.093302
   Occupancy bounds       : [-0.149, 1.147]
================================================================================

Finished density kernel iterations (   3)

Writing density kernel to file "benzene_dimer_vdw.dkn" ... done

################################################################################
########################### NGWF CG iteration  001 #############################
################################################################################
****** Reciprocal space K.E. preconditioning with k_zero =  2.0000 a0^-1 *******
................................................................................
<<<<<<<<<<<<<< LNV (Original version) density kernel optimisation >>>>>>>>>>>>>>
~~~~~~~~~~~~~~~~~~~~~~~~~~~~~~~~~~~~~~~~~~~~~~~~~~~~~~~~~~~~~~~~~~~~~~~~~~~~~~~~
iter|       energy      |  rms DeltaK |  commutator |LScoef|CGcoef|      Ne    |
 1    -69.08532855462850 0.00000000000 0.01019021220 0.4276  0.000   60.00000000
 2    -69.09635192378585 0.00393069459 0.00293045848 0.6433  0.092   60.00000000
 3    -69.09788328402547 0.00176681283 0.00102969618 0.0000  0.000   60.00000000
Finished density kernel iterations (   3)

Writing density kernel to file "benzene_dimer_vdw.dkn" ... done

------------------------------- NGWF line search -------------------------------
RMS gradient                =       0.01292993637199
Trial step length           =               0.122474
Gradient along search dir.  =        -20.79492193814
Functional at step 0        =     -69.09788328402547
Functional at step 1        =     -71.29100804735168
Functional predicted        =     -73.68228855906717
Selected quadratic step     =               0.440916
--------------------------- NGWF line search finished --------------------------
                                               
Writing NGWFs to file "benzene_dimer_vdw.tightbox_ngwfs"....  done

################################################################################
########################### NGWF CG iteration  002 #############################
################################################################################
****** Reciprocal space K.E. preconditioning with k_zero =  2.0000 a0^-1 *******
................................................................................
<<<<<<<<<<<<<< LNV (Original version) density kernel optimisation >>>>>>>>>>>>>>
~~~~~~~~~~~~~~~~~~~~~~~~~~~~~~~~~~~~~~~~~~~~~~~~~~~~~~~~~~~~~~~~~~~~~~~~~~~~~~~~
iter|       energy      |  rms DeltaK |  commutator |LScoef|CGcoef|      Ne    |
 1    -73.48538878478779 0.00000000000 0.02556614894 0.4090  0.000   60.00000000
 2    -73.58764303044384 0.01211007237 0.00577249628 0.5982  0.037   60.00000000
 3    -73.59323738845401 0.00293234847 0.00181636649 0.0000  0.000   60.00000000
Finished density kernel iterations (   3)

Writing density kernel to file "benzene_dimer_vdw.dkn" ... done

------------------------------- NGWF line search -------------------------------
RMS gradient                =       0.00445011311837
Trial step length           =               0.232381
Gradient along search dir.  =         -2.46323938562
Functional at step 0        =     -73.59323738845401
Functional at step 1        =     -73.97509066989100
Functional predicted        =     -74.02310041533858
Selected quadratic step     =               0.349023
--------------------------- NGWF line search finished --------------------------
                                               
Writing NGWFs to file "benzene_dimer_vdw.tightbox_ngwfs"....  done

################################################################################
########################### NGWF CG iteration  003 #############################
################################################################################
****** Reciprocal space K.E. preconditioning with k_zero =  2.0000 a0^-1 *******
................................................................................
<<<<<<<<<<<<<< LNV (Original version) density kernel optimisation >>>>>>>>>>>>>>
~~~~~~~~~~~~~~~~~~~~~~~~~~~~~~~~~~~~~~~~~~~~~~~~~~~~~~~~~~~~~~~~~~~~~~~~~~~~~~~~
iter|       energy      |  rms DeltaK |  commutator |LScoef|CGcoef|      Ne    |
 1    -74.02136150867256 0.00000000000 0.00447545957 0.4940  0.000   60.00000000
 2    -74.02390468044632 0.00160779035 0.00133498498 0.5734  0.089   60.00000000
 3    -74.02416727682277 0.00064025220 0.00054335969 0.0000  0.000   60.00000000
Finished density kernel iterations (   3)

Writing density kernel to file "benzene_dimer_vdw.dkn" ... done

------------------------------- NGWF line search -------------------------------
RMS gradient                =       0.00140125502891
Trial step length           =               0.284792
Gradient along search dir.  =         -0.24422993136
Functional at step 0        =     -74.02416727682277
Functional at step 1        =     -74.06555844571150
Functional predicted        =     -74.06711163480175
Selected quadratic step     =               0.351672
--------------------------- NGWF line search finished --------------------------
                                               
Writing NGWFs to file "benzene_dimer_vdw.tightbox_ngwfs"....  done

################################################################################
########################### NGWF CG iteration  004 #############################
################################################################################
****** Reciprocal space K.E. preconditioning with k_zero =  2.0000 a0^-1 *******
................................................................................
<<<<<<<<<<<<<< LNV (Original version) density kernel optimisation >>>>>>>>>>>>>>
~~~~~~~~~~~~~~~~~~~~~~~~~~~~~~~~~~~~~~~~~~~~~~~~~~~~~~~~~~~~~~~~~~~~~~~~~~~~~~~~
iter|       energy      |  rms DeltaK |  commutator |LScoef|CGcoef|      Ne    |
 1    -74.06563752741452 0.00000000000 0.00212344586 0.4948  0.000   60.00000000
 2    -74.06638481221611 0.00103498606 0.00082125801 0.5454  0.089   60.00000000
 3    -74.06645786080013 0.00033207604 0.00032718341 0.0000  0.000   60.00000000
Finished density kernel iterations (   3)

Writing density kernel to file "benzene_dimer_vdw.dkn" ... done

------------------------------- NGWF line search -------------------------------
RMS gradient                =       0.00047435487938
Trial step length           =               0.316470
Gradient along search dir.  =         -0.02798796122
Functional at step 0        =     -74.06645786080013
Functional at step 1        =     -74.06964021226999
Functional predicted        =     -74.06991392413883
Selected quadratic step     =               0.246968
--------------------------- NGWF line search finished --------------------------
                                               
Writing NGWFs to file "benzene_dimer_vdw.tightbox_ngwfs"....  done

################################################################################
########################### NGWF CG iteration  005 #############################
################################################################################
****** Reciprocal space K.E. preconditioning with k_zero =  2.0000 a0^-1 *******
................................................................................
<<<<<<<<<<<<<< LNV (Original version) density kernel optimisation >>>>>>>>>>>>>>
~~~~~~~~~~~~~~~~~~~~~~~~~~~~~~~~~~~~~~~~~~~~~~~~~~~~~~~~~~~~~~~~~~~~~~~~~~~~~~~~
iter|       energy      |  rms DeltaK |  commutator |LScoef|CGcoef|      Ne    |
 1    -74.06978580535508 0.00000000000 0.00064249718 0.5888  0.000   60.00000000
 2    -74.06986266343974 0.00035439706 0.00030095649 0.5491  0.200   60.00000000
 3    -74.06987697274708 0.00015913138 0.00016273877 0.0000  0.000   60.00000000
Finished density kernel iterations (   3)

Writing density kernel to file "benzene_dimer_vdw.dkn" ... done

------------------------------- NGWF line search -------------------------------
WARNING: slope along search direction is positive:    0.626481E-02
         Resetting conjugate gradients!
WARNING: slope along search direction is still positive.
         Reversing search direction!!
RMS gradient                =       0.00022442529489
Trial step length           =               0.279567
Gradient along search dir.  =         -0.00626481323
Functional at step 0        =     -74.06987697274708
Functional at step 1        =     -74.07058388834352
Functional predicted        =     -74.07061116816672
Selected quadratic step     =               0.234387
--------------------------- NGWF line search finished --------------------------
                                               
Writing NGWFs to file "benzene_dimer_vdw.tightbox_ngwfs"....  done

################################################################################
########################### NGWF CG iteration  006 #############################
################################################################################
****** Reciprocal space K.E. preconditioning with k_zero =  2.0000 a0^-1 *******
................................................................................
<<<<<<<<<<<<<< LNV (Original version) density kernel optimisation >>>>>>>>>>>>>>
~~~~~~~~~~~~~~~~~~~~~~~~~~~~~~~~~~~~~~~~~~~~~~~~~~~~~~~~~~~~~~~~~~~~~~~~~~~~~~~~
iter|       energy      |  rms DeltaK |  commutator |LScoef|CGcoef|      Ne    |
 1    -74.07053485358242 0.00000000000 0.00054815769 0.5854  0.000   60.00000000
 2    -74.07059132802289 0.00032112910 0.00016337739 0.5660  0.076   60.00000000
 3    -74.07059547300835 0.00007955825 0.00009624704 0.0000  0.000   60.00000000
Finished density kernel iterations (   3)

Writing density kernel to file "benzene_dimer_vdw.dkn" ... done

------------------------------- NGWF line search -------------------------------
RMS gradient                =       0.00015720952100
Trial step length           =               0.255982
Gradient along search dir.  =         -0.00307412985
Functional at step 0        =     -74.07059547300835
Functional at step 1        =     -74.06994963089056
Functional predicted        =     -74.07070352413857
Selected quadratic step     =               0.070297
--------------------------- NGWF line search finished --------------------------
                                               
Writing NGWFs to file "benzene_dimer_vdw.tightbox_ngwfs"....  done

################################################################################
########################### NGWF CG iteration  007 #############################
################################################################################
****** Reciprocal space K.E. preconditioning with k_zero =  2.0000 a0^-1 *******
................................................................................
<<<<<<<<<<<<<< LNV (Original version) density kernel optimisation >>>>>>>>>>>>>>
~~~~~~~~~~~~~~~~~~~~~~~~~~~~~~~~~~~~~~~~~~~~~~~~~~~~~~~~~~~~~~~~~~~~~~~~~~~~~~~~
iter|       energy      |  rms DeltaK |  commutator |LScoef|CGcoef|      Ne    |
 1    -74.07069432605763 0.00000000000 0.00020354514 0.5860  0.000   60.00000000
 2    -74.07070137007410 0.00010675351 0.00009337582 0.6546  0.169   60.00000000
 3    -74.07070269903095 0.00004575343 0.00007258037 0.0000  0.000   60.00000000
Finished density kernel iterations (   3)

Writing density kernel to file "benzene_dimer_vdw.dkn" ... done

           ........................................................
           | *** NGWF optimisation converged ***                  |
           | RMS NGWF gradient =    0.00009569387277              |
           | Criteria satisfied:                                  |
           | -> RMS NGWF gradient lower than set threshold.       |
           ========================================================

================================================================================
           ---------------- ENERGY COMPONENTS (Eh) ----------------
           | Kinetic                    :       53.64645530655676 |
           | Pseudopotential (local)    :     -554.61610122478680 |
           | Pseudopotential (non-local):       10.03076266914325 |
           | Hartree                    :      248.87050280309853 |
           | Exchange-correlation       :      -25.40801929559818 |
           | Ewald                      :      193.42477320278186 |
           | Dispersion Correction      :       -0.01907616022634 |
           | Total                      :      -74.07070269903095 |
           --------------------------------------------------------
           Integrated density           :       60.00000000000006
================================================================================


                    <<<<< CALCULATION SUMMARY >>>>>
|ITER|    RMS GRADIENT   |     TOTAL ENERGY    |   step   |     Epredicted      
   1     0.01292993637199    -69.09788328402547   0.440916    -73.68228855906717
   2     0.00445011311837    -73.59323738845401   0.349023    -74.02310041533858
   3     0.00140125502891    -74.02416727682277   0.351672    -74.06711163480175
   4     0.00047435487938    -74.06645786080013   0.246968    -74.06991392413883
   5     0.00022442529489    -74.06987697274708   0.234387    -74.07061116816672
   6     0.00015720952100    -74.07059547300835   0.070297    -74.07070352413857
   7     0.00009569387277    -74.07070269903095  <-- CG                         
 
<QC>        [NGWF iterations]:        7
<QC>           [total_energy]:      -74.07070270
<QC>                     [F0]:      -74.07059547
<QC>                     [F1]:      -74.06994963
<QC>                     [F2]:        0.00000000
<QC>   [predicted_functional]:      -74.07070352
<QC>           [rms_gradient]:        0.000095693873
<QC>                 [G_init]:       -0.003074129849
<QC>        [quadratic_coeff]:        0.070297
<QC>            [cubic_coeff]:        0.000000
<QC>               [cg_coeff]:        0.000000
<QC>           [trial_length]:        0.255982

********************* Unconstrained **********************
************************* Forces *************************
*                                                        *
* Element  Atom         Cartesian components (Eh/a)      *
* ------------------------------------------------------ *
*                       x            y            z      *
*                                                        *
*    C       1     -0.17309633   0.00568447  -0.04652018 *
*    C       2     -0.02678655  -0.14560416  -0.04710783 *
*    C       3      0.02376615  -0.13966850  -0.04773532 *
*    C       4      0.17328491   0.00796102  -0.04774766 *
*    C       5      0.02242665   0.13794946  -0.04907573 *
*    C       6     -0.02496178   0.14580920  -0.04826421 *
*    H       7     -0.01044400   0.00059872  -0.00312778 *
*    H       8     -0.00226882   0.00792901  -0.00224485 *
*    H       9     -0.00022657   0.01024006  -0.00280185 *
*    H      10      0.01654487   0.00072434  -0.00397574 *
*    H      11      0.00164880  -0.00649490  -0.00278151 *
*    H      12     -0.00368487  -0.00448090  -0.00224515 *
*    C      13     -0.17885790  -0.00035953   0.04753204 *
*    C      14     -0.02624077  -0.14518368   0.04809206 *
*    C      15      0.02872594  -0.14596262   0.04705590 *
*    C      16      0.17645505  -0.00106663   0.04613771 *
*    C      17      0.02553391   0.13872962   0.04583583 *
*    C      18     -0.02357981   0.13682317   0.04701328 *
*    H      19     -0.01741474  -0.00051732   0.00386840 *
*    H      20      0.00060893   0.00948550   0.00374469 *
*    H      21      0.00078952   0.01012647   0.00361439 *
*    H      22      0.01624022  -0.00062057   0.00417480 *
*    H      23      0.00025055  -0.01137927   0.00313879 *
*    H      24      0.00128663  -0.01072297   0.00341991 *
*                                                        *
**********************************************************
* TOTAL:            0.00000000   0.00000000   0.00000000 *
**********************************************************
 <QC>    [total_force(1,1)]:       -0.173096330097
 <QC>    [total_force(1,2)]:       -0.026786545579
 <QC>    [total_force(1,3)]:        0.023766154577
 <QC>    [total_force(1,4)]:        0.173284908685
 <QC>    [total_force(1,5)]:        0.022426650674
 <QC>    [total_force(1,6)]:       -0.024961783642
 <QC>    [total_force(1,7)]:       -0.010444004823
 <QC>    [total_force(1,8)]:       -0.002268824424
 <QC>    [total_force(1,9)]:       -0.000226571371
 <QC>    [total_force(1,10)]:        0.016544866689
 <QC>    [total_force(1,11)]:        0.001648800564
 <QC>    [total_force(1,12)]:       -0.003684865433
 <QC>    [total_force(1,13)]:       -0.178857896796
 <QC>    [total_force(1,14)]:       -0.026240772520
 <QC>    [total_force(1,15)]:        0.028725944596
 <QC>    [total_force(1,16)]:        0.176455045927
 <QC>    [total_force(1,17)]:        0.025533914015
 <QC>    [total_force(1,18)]:       -0.023579807650
 <QC>    [total_force(1,19)]:       -0.017414740021
 <QC>    [total_force(1,20)]:        0.000608932716
 <QC>    [total_force(1,21)]:        0.000789518030
 <QC>    [total_force(1,22)]:        0.016240216217
 <QC>    [total_force(1,23)]:        0.000250554756
 <QC>    [total_force(1,24)]:        0.001286634911
 <QC>    [total_force(2,1)]:        0.005684470397
 <QC>    [total_force(2,2)]:       -0.145604155219
 <QC>    [total_force(2,3)]:       -0.139668504786
 <QC>    [total_force(2,4)]:        0.007961015272
 <QC>    [total_force(2,5)]:        0.137949460514
 <QC>    [total_force(2,6)]:        0.145809202607
 <QC>    [total_force(2,7)]:        0.000598715224
 <QC>    [total_force(2,8)]:        0.007929009821
 <QC>    [total_force(2,9)]:        0.010240063440
 <QC>    [total_force(2,10)]:        0.000724339028
 <QC>    [total_force(2,11)]:       -0.006494900113
 <QC>    [total_force(2,12)]:       -0.004480895594
 <QC>    [total_force(2,13)]:       -0.000359529400
 <QC>    [total_force(2,14)]:       -0.145183682462
 <QC>    [total_force(2,15)]:       -0.145962616174
 <QC>    [total_force(2,16)]:       -0.001066634113
 <QC>    [total_force(2,17)]:        0.138729619237
 <QC>    [total_force(2,18)]:        0.136823167915
 <QC>    [total_force(2,19)]:       -0.000517315942
 <QC>    [total_force(2,20)]:        0.009485495510
 <QC>    [total_force(2,21)]:        0.010126474847
 <QC>    [total_force(2,22)]:       -0.000620567253
 <QC>    [total_force(2,23)]:       -0.011379265391
 <QC>    [total_force(2,24)]:       -0.010722967366
[...]
<<<<<<<<<<<<<< LNV (Original version) density kernel optimisation >>>>>>>>>>>>>>
~~~~~~~~~~~~~~~~~~~~~~~~~~~~~~~~~~~~~~~~~~~~~~~~~~~~~~~~~~~~~~~~~~~~~~~~~~~~~~~~
iter|       energy      |  rms DeltaK |  commutator |LScoef|CGcoef|      Ne    |
 1    -74.28053372022174 0.00000000000 0.00384590147 0.5757  0.000   60.00000000
 2    -74.28272835467307 0.00154151985 0.00114338612 0.7245  0.090   60.00000000
 3    -74.28297745517217 0.00062975348 0.00051308495 0.0000  0.000   60.00000000
Finished density kernel iterations (   3)

Writing density kernel to file "benzene_dimer_vdw.dkn" ... done

------------------------------- NGWF line search -------------------------------
RMS gradient                =       0.00132929576410
Trial step length           =               0.286388
Gradient along search dir.  =         -0.21978991478
Functional at step 0        =     -74.28297745517217
Functional at step 1        =     -74.32124857686114
Functional predicted        =     -74.32312183330178
Selected quadratic step     =               0.365298
--------------------------- NGWF line search finished --------------------------
                                               
Writing NGWFs to file "benzene_dimer_vdw.tightbox_ngwfs"....  done

################################################################################
########################### NGWF CG iteration  004 #############################
################################################################################
****** Reciprocal space K.E. preconditioning with k_zero =  2.0000 a0^-1 *******
................................................................................
<<<<<<<<<<<<<< LNV (Original version) density kernel optimisation >>>>>>>>>>>>>>
~~~~~~~~~~~~~~~~~~~~~~~~~~~~~~~~~~~~~~~~~~~~~~~~~~~~~~~~~~~~~~~~~~~~~~~~~~~~~~~~
iter|       energy      |  rms DeltaK |  commutator |LScoef|CGcoef|      Ne    |
 1    -74.32162113360411 0.00000000000 0.00193418761 0.6050  0.000   60.00000000
 2    -74.32211022020732 0.00076717873 0.00063548657 0.6752  0.089   60.00000000
 3    -74.32215903236897 0.00022490483 0.00027820961 0.0000  0.000   60.00000000
Finished density kernel iterations (   3)

Writing density kernel to file "benzene_dimer_vdw.dkn" ... done

------------------------------- NGWF line search -------------------------------
RMS gradient                =       0.00047620130088
Trial step length           =               0.323445
Gradient along search dir.  =         -0.02820627098
Functional at step 0        =     -74.32215903236897
Functional at step 1        =     -74.32602480960705
Functional predicted        =     -74.32611689972120
Selected quadratic step     =               0.280637
--------------------------- NGWF line search finished --------------------------
                                               
Writing NGWFs to file "benzene_dimer_vdw.tightbox_ngwfs"....  done

################################################################################
########################### NGWF CG iteration  005 #############################
################################################################################
****** Reciprocal space K.E. preconditioning with k_zero =  2.0000 a0^-1 *******
................................................................................
<<<<<<<<<<<<<< LNV (Original version) density kernel optimisation >>>>>>>>>>>>>>
~~~~~~~~~~~~~~~~~~~~~~~~~~~~~~~~~~~~~~~~~~~~~~~~~~~~~~~~~~~~~~~~~~~~~~~~~~~~~~~~
iter|       energy      |  rms DeltaK |  commutator |LScoef|CGcoef|      Ne    |
 1    -74.32593356528724 0.00000000000 0.00066214801 0.7140  0.000   60.00000000
 2    -74.32599396980616 0.00025572257 0.00023904320 0.7354  0.142   60.00000000
 3    -74.32600282227244 0.00011017282 0.00017470271 0.0000  0.000   60.00000000
Finished density kernel iterations (   3)

Writing density kernel to file "benzene_dimer_vdw.dkn" ... done

------------------------------- NGWF line search -------------------------------
WARNING: slope along search direction is positive:    0.542653E-02
         Resetting conjugate gradients!
WARNING: slope along search direction is still positive.
         Reversing search direction!!
RMS gradient                =       0.00020887126116
Trial step length           =               0.301282
Gradient along search dir.  =         -0.00542652611
Functional at step 0        =     -74.32600282227244
Functional at step 1        =     -74.32674768448419
Functional predicted        =     -74.32675360549855
Selected quadratic step     =               0.276709
--------------------------- NGWF line search finished --------------------------
                                               
Writing NGWFs to file "benzene_dimer_vdw.tightbox_ngwfs"....  done

################################################################################
########################### NGWF CG iteration  006 #############################
################################################################################
****** Reciprocal space K.E. preconditioning with k_zero =  2.0000 a0^-1 *******
................................................................................
<<<<<<<<<<<<<< LNV (Original version) density kernel optimisation >>>>>>>>>>>>>>
~~~~~~~~~~~~~~~~~~~~~~~~~~~~~~~~~~~~~~~~~~~~~~~~~~~~~~~~~~~~~~~~~~~~~~~~~~~~~~~~
iter|       energy      |  rms DeltaK |  commutator |LScoef|CGcoef|      Ne    |
 1    -74.32662835686152 0.00000000000 0.00064303495 0.6271  0.000   60.00000000
 2    -74.32667703328994 0.00021133573 0.00019591472 0.4950  0.115   60.00000000
 3    -74.32668144020685 0.00006703744 0.00011263374 0.0000  0.000   60.00000000
Finished density kernel iterations (   3)

Writing density kernel to file "benzene_dimer_vdw.dkn" ... done

------------------------------- NGWF line search -------------------------------
RMS gradient                =       0.00015407977183
Trial step length           =               0.288734
Gradient along search dir.  =         -0.00295294782
Functional at step 0        =     -74.32668144020685
Functional at step 1        =     -74.32599794970990
Functional predicted        =     -74.32679975140360
Selected quadratic step     =               0.080131
--------------------------- NGWF line search finished --------------------------
                                               
Writing NGWFs to file "benzene_dimer_vdw.tightbox_ngwfs"....  done

################################################################################
########################### NGWF CG iteration  007 #############################
################################################################################
****** Reciprocal space K.E. preconditioning with k_zero =  2.0000 a0^-1 *******
................................................................................
<<<<<<<<<<<<<< LNV (Original version) density kernel optimisation >>>>>>>>>>>>>>
~~~~~~~~~~~~~~~~~~~~~~~~~~~~~~~~~~~~~~~~~~~~~~~~~~~~~~~~~~~~~~~~~~~~~~~~~~~~~~~~
iter|       energy      |  rms DeltaK |  commutator |LScoef|CGcoef|      Ne    |
 1    -74.32678654131226 0.00000000000 0.00023010362 0.6844  0.000   60.00000000
 2    -74.32679305559525 0.00007927957 0.00009195420 1.0185  0.138   60.00000000
 3    -74.32679439094255 0.00004023102 0.00009064293 0.0000  0.000   60.00000000
Finished density kernel iterations (   3)

Writing density kernel to file "benzene_dimer_vdw.dkn" ... done

           ........................................................
           | *** NGWF optimisation converged ***                  |
           | RMS NGWF gradient =    0.00008856046802              |
           | Criteria satisfied:                                  |
           | -> RMS NGWF gradient lower than set threshold.       |
           ========================================================

================================================================================
           ---------------- ENERGY COMPONENTS (Eh) ----------------
           | Kinetic                    :       50.97796555135648 |
           | Pseudopotential (local)    :     -511.02504593695409 |
           | Pseudopotential (non-local):        9.75786268071625 |
           | Hartree                    :      228.45244734216558 |
           | Exchange-correlation       :      -24.73470363267489 |
           | Ewald                      :      172.26377972207956 |
           | Dispersion Correction      :       -0.01910011763143 |
           | Total                      :      -74.32679439094255 |
           --------------------------------------------------------
           Integrated density           :       60.00000000000015
================================================================================


                    <<<<< CALCULATION SUMMARY >>>>>
|ITER|    RMS GRADIENT   |     TOTAL ENERGY    |   step   |     Epredicted      
   1     0.01224287339926    -69.71482023170961   0.456818    -73.97319826026630
   2     0.00440296212635    -73.86420125633630   0.346748    -74.28226093130139
   3     0.00132929576410    -74.28297745517217   0.365298    -74.32312183330178
   4     0.00047620130088    -74.32215903236897   0.280637    -74.32611689972120
   5     0.00020887126116    -74.32600282227244   0.276709    -74.32675360549855
   6     0.00015407977183    -74.32668144020685   0.080131    -74.32679975140360
   7     0.00008856046802    -74.32679439094255  <-- CG                         
 
<QC>        [NGWF iterations]:        7
<QC>           [total_energy]:      -74.32679439
<QC>                     [F0]:      -74.32668144
<QC>                     [F1]:      -74.32599795
<QC>                     [F2]:        0.00000000
<QC>   [predicted_functional]:      -74.32679975
<QC>           [rms_gradient]:        0.000088560468
<QC>                 [G_init]:       -0.002952947816
<QC>        [quadratic_coeff]:        0.080131
<QC>            [cubic_coeff]:        0.000000
<QC>               [cg_coeff]:        0.000000
<QC>           [trial_length]:        0.288734

********************* Unconstrained **********************
************************* Forces *************************
*                                                        *
* Element  Atom         Cartesian components (Eh/a)      *
* ------------------------------------------------------ *
*                       x            y            z      *
*                                                        *
*    C       1      0.01940782  -0.00120322  -0.03615702 *
*    C       2     -0.03874032   0.02150833  -0.03617766 *
*    C       3      0.04380538   0.01414058  -0.03423455 *
*    C       4     -0.04609925  -0.00362126  -0.03887698 *
*    C       5      0.05150658   0.00364173  -0.03586037 *
*    C       6     -0.04680160  -0.00349024  -0.03734097 *
*    H       7     -0.02402629  -0.00094492  -0.00469683 *
*    H       8     -0.00949310  -0.01577976  -0.00312951 *
*    H       9      0.00426001  -0.00923038  -0.00477394 *
*    H      10      0.02195690  -0.00134991  -0.00429816 *
*    H      11      0.00680871   0.00908547  -0.00381811 *
*    H      12     -0.01256548   0.01556763  -0.00215476 *
*    C      13      0.04271150  -0.00618600   0.04176209 *
*    C      14     -0.04155543   0.01559022   0.03869876 *
*    C      15      0.04532854   0.01409628   0.03839887 *
*    C      16     -0.02859972  -0.00537758   0.03878049 *
*    C      17      0.04905138  -0.00960880   0.03690501 *
*    C      18     -0.04497050  -0.00988323   0.03669365 *
*    H      19     -0.02761441  -0.00316947   0.00159006 *
*    H      20     -0.00621700  -0.01424827   0.00155405 *
*    H      21      0.00988200  -0.01391555   0.00142928 *
*    H      22      0.02823138  -0.00322172   0.00233135 *
*    H      23      0.00745459   0.00391898   0.00150590 *
*    H      24     -0.00372169   0.00368111   0.00186933 *
*                                                        *
**********************************************************
* TOTAL:            0.00000000   0.00000000   0.00000000 *
**********************************************************
 <QC>    [total_force(1,1)]:        0.019407818829
 <QC>    [total_force(1,2)]:       -0.038740323456
 <QC>    [total_force(1,3)]:        0.043805377533
 <QC>    [total_force(1,4)]:       -0.046099246473
 <QC>    [total_force(1,5)]:        0.051506582892
 <QC>    [total_force(1,6)]:       -0.046801597377
 <QC>    [total_force(1,7)]:       -0.024026293175
 <QC>    [total_force(1,8)]:       -0.009493104375
 <QC>    [total_force(1,9)]:        0.004260012195
 <QC>    [total_force(1,10)]:        0.021956899856
 <QC>    [total_force(1,11)]:        0.006808711706
 <QC>    [total_force(1,12)]:       -0.012565479406
 <QC>    [total_force(1,13)]:        0.042711496472
 <QC>    [total_force(1,14)]:       -0.041555427164
 <QC>    [total_force(1,15)]:        0.045328540578
 <QC>    [total_force(1,16)]:       -0.028599720703
 <QC>    [total_force(1,17)]:        0.049051383055
 <QC>    [total_force(1,18)]:       -0.044970497609
 <QC>    [total_force(1,19)]:       -0.027614413068
 <QC>    [total_force(1,20)]:       -0.006216998893
 <QC>    [total_force(1,21)]:        0.009882001253
 <QC>    [total_force(1,22)]:        0.028231383890
 <QC>    [total_force(1,23)]:        0.007454587733
 <QC>    [total_force(1,24)]:       -0.003721694294
 <QC>    [total_force(2,1)]:       -0.001203219765
 <QC>    [total_force(2,2)]:        0.021508334723
 <QC>    [total_force(2,3)]:        0.014140577872
 <QC>    [total_force(2,4)]:       -0.003621257569
 <QC>    [total_force(2,5)]:        0.003641725870
 <QC>    [total_force(2,6)]:       -0.003490244370
 <QC>    [total_force(2,7)]:       -0.000944923158
 <QC>    [total_force(2,8)]:       -0.015779755246
 <QC>    [total_force(2,9)]:       -0.009230382309
 <QC>    [total_force(2,10)]:       -0.001349914217
 <QC>    [total_force(2,11)]:        0.009085465871
 <QC>    [total_force(2,12)]:        0.015567627923
 <QC>    [total_force(2,13)]:       -0.006186003897
 <QC>    [total_force(2,14)]:        0.015590224432
 <QC>    [total_force(2,15)]:        0.014096278558
 <QC>    [total_force(2,16)]:       -0.005377575209
 <QC>    [total_force(2,17)]:       -0.009608801163
 <QC>    [total_force(2,18)]:       -0.009883233071
 <QC>    [total_force(2,19)]:       -0.003169468765
 <QC>    [total_force(2,20)]:       -0.014248270782
 <QC>    [total_force(2,21)]:       -0.013915550109
 <QC>    [total_force(2,22)]:       -0.003221724424
 <QC>    [total_force(2,23)]:        0.003918978903
 <QC>    [total_force(2,24)]:        0.003681109901
 <QC>    [total_force(3,1)]:       -0.036157017675
 <QC>    [total_force(3,2)]:       -0.036177655302
 <QC>    [total_force(3,3)]:       -0.034234554607
 <QC>    [total_force(3,4)]:       -0.038876976608
 <QC>    [total_force(3,5)]:       -0.035860369316
 <QC>    [total_force(3,6)]:       -0.037340968310
 <QC>    [total_force(3,7)]:       -0.004696828477
 <QC>    [total_force(3,8)]:       -0.003129511053
 <QC>    [total_force(3,9)]:       -0.004773941818
 <QC>    [total_force(3,10)]:       -0.004298162957
 <QC>    [total_force(3,11)]:       -0.003818107437
 <QC>    [total_force(3,12)]:       -0.002154757799
 <QC>    [total_force(3,13)]:        0.041762085849
 <QC>    [total_force(3,14)]:        0.038698761363
 <QC>    [total_force(3,15)]:        0.038398868090
 <QC>    [total_force(3,16)]:        0.038780491155
 <QC>    [total_force(3,17)]:        0.036905011492
 <QC>    [total_force(3,18)]:        0.036693646411
 <QC>    [total_force(3,19)]:        0.001590063973
 <QC>    [total_force(3,20)]:        0.001554052579
 <QC>    [total_force(3,21)]:        0.001429283378
 <QC>    [total_force(3,22)]:        0.002331351300
 <QC>    [total_force(3,23)]:        0.001505904551
 <QC>    [total_force(3,24)]:        0.001869331218
  
 +------------+-------------+-------------+-----------------+ <-- min BFGS
 |    Step    |   lambda    |   F.delta   |    enthalpy     | <-- min BFGS
 +------------+-------------+-------------+-----------------+ <-- min BFGS
 |  previous  |     0.00000 |    0.274999 |      -74.070703 | <-- min BFGS
 | trial step |     1.00000 |    0.129555 |      -74.262399 | <-- min BFGS
 |  line step |     1.89076 |    0.033176 |      -74.326794 | <-- min BFGS
 +------------+-------------+-------------+-----------------+ <-- min BFGS
  
 BFGS: finished iteration   2  with enthalpy= -7.432679439094E+001 Ha
  
 +-----------+-----------------+-----------------+------------+-----+ <-- BFGS
 | Parameter |      value      |    tolerance    |    units   | OK? | <-- BFGS
 +-----------+-----------------+-----------------+------------+-----+ <-- BFGS
 |  dE/ion   |   1.067049E-002 |   1.000000E-006 |         Ha | No  | <-- BFGS
 |  |F|max   |   6.286618E-002 |   2.000000E-003 |    Ha/Bohr | No  | <-- BFGS
 |  |dR|max  |   3.159570E-001 |   5.000000E-003 |       Bohr | No  | <-- BFGS
 +-----------+-----------------+-----------------+------------+-----+ <-- BFGS
  
 BFGS: Geometry optimization failed to converge after           2 steps.

================================================================================
 BFGS: Final Configuration:
================================================================================
 
                           -------------------------------
                                     Cell Contents
                           -------------------------------
 
            xxxxxxxxxxxxxxxxxxxxxxxxxxxxxxxxxxxxxxxxxxxxxxxxxxxxxxxxxxxx
            x  Element    Atom      Absolute co-ordinates of atoms     x
            x            Number        x           y           z       x
            x----------------------------------------------------------x
            x    C         1       12.000147   14.837032   12.318692   x
            x    C         2       13.321969   12.449858   12.322994   x
            x    C         3       16.054392   12.464010   12.313631   x
            x    C         4       17.454518   14.839003   12.311077   x
            x    C         5       16.042635   17.161709   12.308300   x
            x    C         6       13.336736   17.178505   12.312810   x
            x    H         7        9.880367   14.789467   12.564846   x
            x    H         8       12.290045   10.677606   12.565686   x
            x    H         9       17.126076   10.679108   12.565114   x
            x    H        10       19.564820   14.789626   12.561563   x
            x    H        11       17.131903   18.911389   12.563507   x
            x    H        12       12.285853   18.911755   12.565997   x
            x    C        13       11.787424   14.645301   16.982826   x
            x    C        14       13.187302   12.296638   16.982334   x
            x    C        15       15.908137   12.294145   16.979381   x
            x    C        16       17.286632   14.644643   16.975305   x
            x    C        17       15.905663   16.973014   16.970542   x
            x    C        18       13.189297   16.968924   16.978947   x
            x    H        19        9.698324   14.644882   16.741984   x
            x    H        20       12.133701   10.531383   16.742478   x
            x    H        21       16.971448   10.534787   16.740896   x
            x    H        22       19.395983   14.644498   16.741272   x
            x    H        23       16.967385   18.754012   16.740247   x
            x    H        24       12.137320   18.757591   16.740193   x
            xxxxxxxxxxxxxxxxxxxxxxxxxxxxxxxxxxxxxxxxxxxxxxxxxxxxxxxxxxxx
 
 BFGS: Final Enthalpy     = -7.43267944E+001 Ha
 Writing xyz coordinates to file "benzene_dimer_vdw.xyz" ... done

 Writing continuation file "benzene_dimer_vdw.continuation" ...done

 Removing NGWF backup file "benzene_dimer_vdw.tightbox_ngwfs.bfgs_back" ... done
 Removing density kernel backup file "benzene_dimer_vdw.dkn.bfgs_back" ... done

------------------------------ TIMING INFORMATION ------------------------------
TOTAL TIME:     157.489s on     4 node(s)

Job completed: 27-05-2011 23:11 (+0100)

