 +---------------------------------------------------------------+
 |                                                               |
 |        ####### #     # ####### ####### ####### ######         |
 |        #     # ##    # #          #    #       #     #        |
 |        #     # # #   # #          #    #       #     #        |
 |        #     # #  #  # #####      #    #####   ######         |
 |        #     # #   # # #          #    #       #              |
 |        #     # #    ## #          #    #       #              |
 |        ####### #     # #######    #    ####### #              |
 |                                                               |
 |        Linear-Scaling Ab Initio Total Energy Program          |
 |                                                               |
 |          Release for academic collaborators of ODG            |
 |                                              Version 3.0      |
 |                                                               |
 +---------------------------------------------------------------+
 |                                                               |
 |  Authors:                                                     |
 |  Peter D. Haynes, Nicholas D. M. Hine, Arash. A. Mostofi,     |
 |  Mike C. Payne and Chris-Kriton Skylaris                      |
 |                                                               |
 |  Contributors:                                                |
 |  P. W. Avraam, S. J. Clark, O. Dieguez, S. M. M. Dubois,      |
 |  J. Dziedzic, H. H. Helal, Q. O. Hill, D. D. O`Regan,         |
 |  C. J. Pickard, M. I. J. Probert, L. Ratcliff, M. Robinson    |
 |  and A. Ruiz Serrano                                          |
 |                                                               |
 |                                   Copyright (c) 2004-2011     |
 |                                                               |
 |  Please cite:                                                 |
 |  "Introducing ONETEP: Linear-scaling density functional       |
 |   simulations on parallel computers".                         |
 |   C.-K. Skylaris, P. D. Haynes, A. A. Mostofi, M. C. Payne.   |
 |   J. Chem. Phys. 122 084119 (2005).                           |
 |                                                               |
 |          in all publications arising from your use of ONETEP. |
 |                                                               |
 +---------------------------------------------------------------+
 |                                                               |
 |   ONETEP is based on developments described in the following  |
 |   publications:                                               |
 |                                                               |
 |  "Nonorthogonal generalized Wannier function pseudopotential  |
 |   plane-wave method".                                         |
 |   C.-K. Skylaris, A. A. Mostofi, P. D. Haynes, O. Dieguez,    |
 |   M. C. Payne.                                                |
 |   Phys. Rev. B 66 035119 (2002).                              |
 |                                                               |
 |  "Preconditioned iterative minimization for linear-scaling    |
 |   electronic structure calculations".                         |
 |   A. A. Mostofi, P. D. Haynes, C.-K. Skylaris, M. C. Payne.   |
 |   J. Chem. Phys. 119(17), pp.8842-8848 (2003).                |
 |                                                               |
 |  "Total-energy calculations on a real space grid with         |
 |   localized functions and a plane-wave basis".                |
 |   A. A. Mostofi, C.-K. Skylaris, P. D. Haynes, M. C. Payne.   |
 |   Comput. Phys. Commun. 147, pp.788-802 (2002).               |
 |                                                               |
 |  "Accurate kinetic energy evaluation in electronic structure  |
 |   calculations with localized functions on real space grids"  |
 |   C.-K. Skylaris, A. A. Mostofi, P. D. Haynes, C. J. Pickard, |
 |   M. C. Payne.                                                |
 |   Comput. Phys. Commun. 140, pp.315-322 (2001).               |
 |                                                               |
 +---------------------------------------------------------------+

Job started: 27-05-2011 22:59 (+0100)

Running on     4 processors.

Reading parameters from file "C69N.dat" ...... done
Reading geometry and species blocks from file "C69N.dat" ...
  <species_atomic_set> block not found: NGWF initialisation set to AUTO
... done
-------------------------------------------------------------------------------
---------------------------- RUN-TIME PARAMETERS ------------------------------
-------------------------------------------------------------------------------
task                      : SINGLEPOINT *! Type of calculation (String)         
cutoffenergy              : 9.18724855613305      hartree *! Plane wave kinetic 
kernelcutoff              : 1000.00000000000 *! Density kernel radius in Bohr ( 
xcfunctional              : LDA *! Exchange-correlation functional (String)     
libxcxfuncid              : 0 *! Functional identifier for which exchange funct 
libxccfuncid              : 0 *! Functional identifier for which correlation fu 
charge                    : 0.000000000000000E+000 *! The total charge of the s 
spin                      : 0 *! Total spin of system (Integer)                 
spinpolarized             : F *! Switch for spin polarization (Boolean)         
spinpolarised             : F *! Switch for spin polarisation (Boolean)         
constantefield            : 0.0 0.0 0.0 *! Cartesian coordinates of constant el 
fftboxpref                : 0 0 0 *! Preferred FFT box dimensions (String)      
ppdnpoints                : 0 0 0 *! PPD edge length in grid points for each la 
psincspacing              : 0.0 0.0 0.0 *! PSINC grid spacing in atomic units ( 
oldinput                  : F *! Read old-format input file (Boolean)           
develcode                 : *! For development code only (String)               
nnho                      : F *! Initialise NGWFs to nonorthogonal natural hybr 
ngwfhalo                  : -1.00000000000000 *! Halo extension to NGWF radii ( 
nonscforces               : F *! Include non self-consistent forces due to NGWF 
maxitpalsermano           : 50 *! Maximum number of iterations for Palser-Manol 
maxitpen                  : 3 *! Max number of penalty functional iterations (I 
penparam                  : 4.00000000000000 *! Penalty functional parameter (D 
minitlnv                  : 3 *! Min number of LNV iterations (Integer)         
maxitlnv                  : 3 *! Max number of LNV iterations (Integer)         
maxitlnvcoarse            : 0 *! Max number of low-accuracy LNV iterations (Int 
lnvthresholdorig          : 1.000000000000000E-009 *! LNV convergence threshold 
lnvcgtype                 : LNV_FLETCHER *! Type of CG coefficient for LNV dens 
lnvcgmaxstep              : 3.00000000000000 *! Maximum length of trial step fo 
exactlnv                  : T *! Use original LNV algorithm (Boolean)           
oldlnv                    : F *! Use LNV algorithm backwards compatible pre Dec 
lnvchecktrialsteps        : F *! Check stability of kernel at each trial step d 
kerfix                    : 1 *! Density kernel fixing approach (Integer)       
maxitkernelfix            : 3 *! Maximum # iterations of Penalty Functional ide 
initialdensrealspace      : F *! Construct initial density in real space from a 
kerneldiis                : F *! Use kernel DIIS in the inner loop (Boolean)    
kerneldiistype            : P *! Density mixing method (String)                 
kerneldiismax             : 10 *! Max number of kernels saved during kernel DII 
kerneldiismaxit           : 25 *! Max number of kernel DIIS iterations (Integer 
kerneldiisthres           : 1.000000000000000E-009 *! Density mixing convergenc 
kerneldiisliter           : 5 *! Number of linear mixing iterations (Integer)   
kerneldiiscin             : 0.900000000000000 *! Coefficient for the input kern 
kerneldiiscriteria        : 1000 *! Density mixing convergence criteria (String 
maxitngwfcg               : 1 *! Max number of NGWF conjugate gradients (CG) it 
ngwfcgtype                : NGWF_FLETCHER *! Type of CG coefficient for NGWF op 
ngwfcgmaxstep             : -8.00000000000000 *! Maximum length of trial step f 
eleccgmax                 : 5 *! Number of NGWF iterations to reset CG (Integer 
precondscheme             : TETER *! Recip-space preconditioning scheme (String 
kzero                     : 3.00000000000000 *! KE preconditioning parameter (D 
rprecond                  : 2.00000000000000 *! Radial cut-off for real-space p 
precondrecip              : T *! Recip-space KE preconditioning (Boolean)       
precondreal               : F *! Real-space KE preconditioning (Boolean)        
smoothscheme              : NONE *! Smoothing scheme for the NGWF gradients at  
rsmooth                   : 1.50000000000000      bohr *! Radius of the unshave 
ksmooth                   : 5.00000000000000 *! Characteristic wavelength of th 
occmix                    : 0.250000000000000 *! Mix fraction of occupancy prec 
kernelupdate              : F *! Update density kernel during NGWF line search  
kernelchristoffelupdate   : F *! Update density kernel during NGWF line search  
maxithotelling            : 50 *! Number of Hotelling iteration per NGWF change 
maxresidhotelling         : 1.000000000000000E-012 *! Max allowed value in Hote 
maxitngwfdiis             : 0 *! Max number of NGWF DIIS steps (Integer)        
ngwfdiissize              : 4 *! Max size of the DIIS iterative subspace (Integ 
ngwfdiisreset             : 8 *! Max number of iteration for the resetting of D 
ngwfdiismaxstep           : 2.00000000000000 *! Max length of trial step for NG 
ngwfthresholdorig         : 2.000000000000000E-006 *! NGWF convergence threshol 
elecenergytol             : -1.000000000000000E-003 hartree *! Tolerance on tot 
elecforcetol              : -1.000000000000000E-003 ha/bohr *! Tolerance on max 
ngwfmaxgrad               : -2.000000000000000E-005 *! Maximum permissible valu 
deltaeconv                : T *! Use consecutive energy gains as a criterion fo 
locpotintbatchsize        : 10 *! Size of NGWF in fftbox batch for locpot integ 
kineticintbatchsize       : 10 *! Size of NGWF in fftbox batch for kinetic inte 
densitybatchsize          : 10 *! Size of NGWF in fftbox batch for charge densi 
ngwfgradbatchsize         : 10 *! Size of NGWF in fftbox batch for NGWF gradien 
densethreshold            : 0.400000000000000 *! Threshold for matrix segment f 
commsgroupsize            : 4 *! Number of nodes in a group (determines comms e 
ovlpfornonlocal           : F *! Overlap sparsity for nonlocal (Boolean)        
usespacefillingcurve      : T *! Re-arrange atoms according to space-filling cu 
corehamdenskernguess      : T *! Initial guess for density kernel from core Ham 
checkatoms                : T *! Check atoms on top of each other (Boolean)     
locpotscheme              : FULL *! Scheme for evaluating local potential matri 
smoothprojectors          : -0.400000000000000 *! Halfwidth of Gaussian filter  
smoothlocpspot            : -0.400000000000000 *! Halfwidth of Gaussian filter  
oddpsincgrid              : F *! Force odd number of points in simcell psinc gr 
evenpsincgrid             : F *! Force even number of points in simcell psinc g 
realspaceprojectors       : F *! Whether to evaluate and store projectors in re 
outputdetail              : NORMAL *! Level of output detail (String)           
pawoutputdetail           : DEFAULT *! Level of output detail for PAW: BRIEF, N 
timingslevel              : 0 *! Level of timings output: 0(none) 1(nodes summa 
writeparams               : T *! Output runtime parameters at startup (Boolean) 
writeforces               : F *! Write ionic forces (Boolean)                   
writepositions            : T *! Write ionic positions each geometry or MD step 
writexyz                  : F *! Output coordinates in .xyz file (Boolean)      
printqc                   : T *! Print Quality Control information (Boolean)    
cubeformat                : F *! Allow .cube format for plot outputs (Boolean)  
dxformat                  : F *! Allow .dx format for plot outputs (Boolean)    
dxformatcoarse            : F *! Output only points on the coarse grid (Boolean 
dxformatdigits            : 7 *! Number of significant digits in .dx output (In 
grdformat                 : T *! Allow .grd format for plot outputs (Boolean)   
writedensityplot          : F *! Write the charge density in plotting format (B 
writengwfplot             : F *! Write NGWFs in plotting format (Boolean)       
writengwfgradplot         : F *! Write NGWF Gradients in plotting format (Boole 
writengwfradial           : F *! Write NGWFs radial distributions (Boolean)     
writengwfgradradial       : F *! Write NGWFs gradients radial distributions (Bo 
writeradialstep           : 5.000000000000000E-003 bohr *! Define the grid step 
writeradialsmear          : 1.000000000000000E-002 bohr *! Define the gaussian  
readdenskern              : F *! Read density kernel restart information (Boole 
writedenskern             : F *! Write density kernel restart information (Bool 
readtightboxngwfs         : F *! Read in universal tightbox NGWFs restart infor 
writetightboxngwfs        : F *! Write in universal tightbox NGWFs restart info 
writeconvergeddkngwfs     : F *! Only write Density Kernel and NGWFs upon conve 
readswngwfs               : F *! Read NGWFs restart information in spherical wa 
writeswngwfs              : F *! Write NGWFs restart information in spherical w 
writemaxl                 : 3 *! Maximum angular momentum number when writing i 
readmaxl                  : 3 *! Maximum angular momentum number when reading i 
extransw                  : 0 *! Maximum number of zeros of the sph Bessel func 
paw                       : F *! Uses a PAW construction to find correct core d 
finegridscale             : 2.00000000000000 *! Ratio of size of fine grid to s 
dblgridscale              : 2.00000000000000 *! Ratio of charge density / poten 
augfuncsrecip             : T *! Construct Augmentation functions in recip spac 
dispersion                : 0 *! Select dispersion correction (Integer)         
vdwdcoeff                 : -1.00000000000000 *! Replacement VDW damping coeffi 
hubbardmaxiter            : 0 *! Maximum number of DFT+U projector optimisation 
hubbardenergytol          : 1.000000000000000E-008 hartree *! Energy tolerance  
hubbardconvwin            : 2 *! Energy convergence window when using DFT+U pro 
hubbardprojmixing         : 0.000000000000000E+000 *! Proportion of old Hubbard 
hubbardfunctional         : 1 *! DFT+U energy functional to use (Integer)       
hubbardtensorcorr         : 1 *! DFT+U projector tensorial correction to use (I 
hubbardngwfspinthreshold  : 2.000000000000000E-005 *! NGWF RMS  gradient thresh 
coulombcutoffradius       : 0.000000000000000E+000 *! Radius of sphere or cylin 
coulombcutofflength       : 0.000000000000000E+000 *! Length of cylinder or wid 
coulombcutofftype         : NONE *! Type of cutoff coulomb interaction: NONE, S 
coulombcutoffwriteint     : F *! Write real-space cutoff Coulomb interaction sc 
pbccorrectioncutoff       : 0.000000000000000E+000 *! alpha*L cutoff parameter  
doproperties              : T *! Allow calculation of properties (Boolean)      
numeigenvalues            : 0 *! Number of energy and occupancy eigenvalues to  
homodensplot              : -1 *! Number of squared MOs to plot from HOMO and l 
lumodensplot              : -1 *! Number of squared MOs to plot from LUMO and h 
homoplot                  : -1 *! Number of MOs to plot from HOMO and lower (In 
lumoplot                  : -1 *! Number of MOs to plot from LUMO and higher (I 
dossmear                  : -3.674899422453221E-002 hartree *! Half width of sm 
ldossmear                 : 3.674932438755288E-003 hartree *! Lorentzian broade 
popncalculate             : T *! Allow population analysis (Boolean)            
popnbondcutoff            : 5.66917840375065      bohr *! Bond length cutoff fo 
ngwfanalysis              : F *! Perform NGWF analysis (Boolean)                
polarisationcalculate     : F *! Allow calculation of polarisation (Boolean)    
spreadcalculate           : F *! Calculate spread of NGWFs (Boolean)            
geommodulusest            : 1.700000000000000E-002 ha/bohr**3 *! The estimated  
geomfrequencyest          : 7.600000000000000E-003 hartree *! The estimated ave 
geomenergytol             : 1.000000000000000E-006 hartree *! Geometry optimiza 
geomforcetol              : 2.000000000000000E-003 ha/bohr *! Geometry optimiza 
geomdisptol               : 5.000000000000000E-003 bohr *! Geometry optimizatio 
geommaxiter               : 50 *! Maximum number of geometry optimization itera 
geomconvergencewin        : 2 *! Geometry optimization convergence tolerance wi 
geomcontinuation          : F *! Read information for continuation of a previou 
geombackupiter            : 1 *! Number of geometry optimisation iterations bet 
geomresetdkngwfsiter      : 6 *! Number of geom iterations between resets of ke 
geomreusedkngwfs          : T *! Re-use density kernel and NGWFs during geometr 
geomprintinvhessian       : F *! Write inverse Hessian to standard output (Bool 
geommethod                : CARTESIAN *! Method for geometry optimization (Stri 
tssearchmethod            : LSTQST *! Specifies method to be used for TS search 
tssearchlstqstprotocol    : LSTMAXIMUM *! Specifies LSTQST protocol (String)    
tssearchqstmaxiter        : 5 *! Specifies maximum number of QST steps (Integer 
tssearchcgmaxiter         : 20 *! Specifies maximum number of CG steps (Integer 
tssearchforcetol          : 5.000000000000000E-003 ha/bohr *! Force tolerance f 
tssearchdisptol           : 1.000000000000000E-002 bohr *! Displacement toleran 
mddeltat                  : 40.0000000000000      aut *! Molecular dynamics tim 
mdnumiter                 : 100 *! Maximum number of molecular dynamics iterati 
mdtemperature             : 9.500000000000000E-004 hartree *! Temperature for m 
mdalgorithm               : LEAPFROGVERLET *! Integration algorithm for molecul 
mdthermostat              : NONE *! Thermostat for molecular dynamics (String)  
mdcollisionfrequency      : 0.152000000000000      hartree *! Collision frequen 
mixdenskern               : 0 *! Number of coefficients used to build new guess 
mixngwfs                  : 0 *! Number of coefficients used to build new guess 
condreaddenskern          : F *! Read in conduction density kernel (Boolean)    
condreadtightboxngwfs     : F *! Read in universal tightbox conduction NGWFs (B 
condfixedshift            : F *! Fixed projected conduction Hamiltonian shift ( 
condcalcmaxeigen          : T *! Calculate maximum conduction Hamiltonian eigen 
condnumstates             : 0 *! Number of conduction states to be optimised fo 
condkernelcutoff          : 1000.00000000000 *! Conduction density kernel radiu 
condinitshift             : 0.000000000000000E+000 *! Initial shifting factor f 
condshiftbuffer           : 0.100000000000000 *! Additional buffer for updating 
condnumextrastates        : 0 *! Number of extra conduction states for initial  
condnumextraits           : 0 *! Number of NGWF iterations with extra conductio 
condplotjointorbitals     : T *! Plot orbitals in the joint basis following a c 
condplotvcorbitals        : T *! Plot orbitals in the val and cond NGWF basis s 
condcalcopticalspectra    : F *! Calculate matrix elements for optical absorpti 
condspeccalcmommatels     : T *! Calculate momentum matrix elements (default tr 
condspeccalcnonloccomm    : T *! Calculate nonlocal commutator for momentum mat 
condspeccontderiv         : T *! Calculate non-local commuator using continuous 
condspecnonloccommshift   : 1.000000000000000E-004 *! Finite difference shift f 
bskpointpathspacing       : 0.188972700000000      1/bohr *! K-point spacing al 
bsnumeigenvalues          : -1 *! Num of energy and occ. eigenvalues to print b 
bsunfold                  : 0 0 0 *! Number of times to unfold Brillouin zone i 
bsmethod                  : TB *! Method to use: 'KP' or 'TB' (String)          
dotddft                   : F *! Allow Time-Dependent DFT calculation (Boolean) 
tddftmaximumenergy        : 1.00000000000000      hartree *! Desired maximum of 
tddftresolution           : 1.000000000000000E-003 hartree *! Desired resolutio 
tddftpropagationmethod    : CRANKNICHOLSON *! Method used to integrate von Neum 
tddftsparsitylevel        : 0 *! Matrix sparsity when computing propagators e.g 
tddfttammdancoff          : F *! Invoke Tamm-Dancoff decoupling approximation ( 
tddftdipolekickstrength   : 0.0 0.0 0.0 *! Maximum allowed phase shift in TDDFT 
tddftxcfunctional         : LDA *! Exchange-correlation functional for TDDFT (S 
tddfthamiltonianmixing    : 0 *! Order of polynomial extrapolation to H(t + hal 
tddftdamping              : 0.000000000000000E+000 hartree *! Energy smearing w 
tddftenforcedidempotency  : F *! Project out at each timestep that part of chan 
tddftmaxithotelling       : 50 *! Number of Hotelling iteration per propagation 
tddftmaxresidhotelling    : 1.000000000000000E-018 *! Max allowed value in Hote 
tddftinvoverlapexact      : T *! Renew inverse overlap with O N^3 algorithm bef 
isimplicitsolvent         : F *! Use implicit solvent? (Boolean)                
issmearedionrep           : F *! Implicit solvent: use smeared ions for electro 
isincludecavitation       : F *! Implicit solvent: include cavitation energy (B 
isdensitythreshold        : 7.800000000000000E-004 *! Implicit solvent: rho_0 p 
issolvationbeta           : 1.30000000000000 *! Implicit solvent: beta paramete 
isbulkpermittivity        : 1.00000000000000 *! Implicit solvent: eps_inf param 
ismultigriddefecterrortol : 1.000000000000000E-002 *! Implicit solvent: stop cr 
ismultigriderrortol       : 1.000000000000000E-005 *! Implicit solvent: stop cr 
issmearedionwidth         : 0.800000000000000 *! Implicit solvent: Width of Gau 
issurfacethickness        : 2.000000000000000E-004 *! Implicit solvent: thickne 
issolventsurfacetension   : 4.762400000000000E-005 ha/bohr**2 *! Implicit solve 
ismultigridmaxiters       : 100 *! Implicit solvent: max number of iterations i 
ismultigridnlevels        : 4 *! Implicit solvent: number of levels in multigri 
isdiscretizationorder     : 8 *! Implicit solvent: discretization order (2nd, 4 
isbccoarseness            : 5 *! Implicit solvent: controls boundary condition  
isbcsurfacecoarseness     : 1 *! Implicit solvent: controls boundary condition  
ischecksolvenergygrad     : F *! Implicit solvent: sanity check the energy grad 
issolvationmethod         : DIRECT *! Implicit solvent: direct or corrective me 
isdielectricmodel         : FIX_INITIAL *! Implicit solvent: how the cavity is  
isdielectricfunction      : FGF *! Implicit solvent: how the cavity is determin 
issolvationoutputdetail   : NONE *! Implicit solvent: controls extra output (St 
openbcionion              : F *! Force open BCs in ion-ion energy (Boolean)     
openbchartree             : F *! Force open BCs in Hartree potential (Boolean)  
openbcpspot               : F *! Force open BCs in local pseudopotential (Boole 
openbcpspotfinetunenptsx  : 100000 *! Open BCs in local pseudo, npts_x paramete 
openbcpspotfinetunealpha  : 0.300000000000000 *! Open BCs in local pseudo, alph 
openbcpspotfinetunef      : -1 *! Open BCs in local pseudo, fineness parameter  
%block positionsabs       : *! Cartesian positions for each atom (Block)        
C 19.8841911079   11.5900878984   14.3692495657                                 
C 21.0414782006   13.2317873509   12.6513563613                                 
C 19.1426437327   14.6018197954   11.4250186810                                 
C 16.8119501847   13.8067553802   12.3848105106                                 
C 17.2700575589   11.9453185897   14.2043520760                                 
C 23.3154232771   14.4171368745   13.2913498619                                 
N 23.6894000503   16.9645441989   12.7018876342                                 
C 21.8034157192   18.3252980888   11.4834679058                                 
C 19.5255211153   17.1514192019   10.8432665354                                 
C 17.5806151278   18.8993023578   11.2173000004                                 
C 15.2655685110   18.1097370453   12.1704777890                                 
C 14.8737716218   15.5646729811   12.7589762564                                 
C 13.3963271521   15.4579790518   14.9457671703                                 
C 13.8510519168   13.6091467336   16.7531200031                                 
C 15.7880021578   11.8497740437   16.3907839420                                 
C 16.9183984496   11.3964287790   18.7344410103                                 
C 19.5149008552   11.0432767863   18.8982802535                                 
C 21.0056678931   11.1404087021   16.7200120038                                 
C 23.2804633464   12.3269109586   17.3481380251                                 
C 24.4297946926   13.9578011785   15.6417910465                                 
C 20.8647321289   12.1563631881   20.8697746856                                 
C 23.2027956082   12.9535063019   19.9074317260                                 
C 25.0380974883   18.0762322035   14.6751395115                                 
C 25.4976788488   16.2095608720   16.5003880494                                 
C 15.6804389545   12.8616467216   20.5424552472                                 
C 13.7761431786   14.2357231796   19.3123192176                                 
C 12.8676952041   17.9269249531   15.7034906000                                 
C 14.0282704200   19.5733109262   13.9804951354                                 
C 18.6506346743   21.1493235034   12.0776166539                                 
C 21.2721948465   20.7928455929   12.2429109861                                 
C 22.6836878792   21.9904027464   14.1465453580                                 
C 24.6151768121   20.5972022613   15.3940479693                                 
C 25.5445440533   16.8241186607   19.0834734004                                 
C 24.3672447624   15.1541867019   20.8308085358                                 
C 19.6415880855   13.5421370500   22.7765082081                                 
C 16.9825735442   13.9039061933   22.6085493622                                 
C 12.6665905644   18.5753088371   18.2707022527                                 
C 13.1329182466   16.6818789855   20.1217644476                                 
C 17.3844426730   22.7115410809   13.8119882690                                 
C 15.0133845778   21.9034375564   14.7879561530                                 
C 21.5033650267   23.9822684246   15.4468280162                                 
C 18.8818615463   24.3388786159   15.2815147867                                 
C 25.7282254194   19.3994561352   19.7046641274                                 
C 25.2686440589   21.2658629051   17.8794155895                                 
C 23.4327752610   16.1439495856   23.1108952218                                 
C 21.0953731858   15.3463340404   24.0735216404                                 
C 14.2588925796   22.7636219291   17.1845255490                                 
C 13.0980716994   21.1170280862   18.9074454246                                 
C 14.0071810779   17.4252216004   22.5163496313                                 
C 15.9114768539   16.0511073478   23.7465234553                                 
C 17.3788301868   17.7549598882   25.1218282353                                 
C 19.9750869280   17.4019968680   25.2852706360                                 
C 23.7400447068   18.6864247252   23.7350528186                                 
C 24.8897539982   20.3169936917   22.0291593741                                 
C 24.1497373011   23.3233398697   19.0892748592                                 
C 22.2639797371   24.6839236842   17.8708929253                                 
C 18.0414059129   25.2584381792   17.6046116363                                 
C 15.7259813509   24.4694208872   18.5579783975                                 
C 14.3117671128   19.9680368906   23.1404127417                                 
C 13.8565699167   21.8170014896   21.3329843200                                 
C 20.1288917262   25.4790636884   19.2077417814                                 
C 15.4765564176   23.8927710018   21.1236782695                                 
C 16.3912026934   20.1773996329   24.7554481606                                 
C 21.6079802574   19.4680720858   25.0839581265                                 
C 23.9180568949   22.7446112857   21.6558440051                                 
C 20.6300281611   21.8964833647   24.7210362504                                 
C 21.7872963565   23.5381261255   23.0034265048                                 
C 19.8890099092   24.9087632823   21.7773155917                                 
C 18.0163670435   22.2521675903   24.5567245757                                 
C 17.5581651831   24.1138500452   22.7372963938                                 
%endblock positionsabs    : *! Cartesian positions for each atom (Block)        
%block latticecart        : *! The simulation cell lattice vectors (Block)      
45.0   0.0   0.0                                                                
0.0  45.0   0.0                                                                 
0.0   0.0  45.0                                                                 
%endblock latticecart     : *! The simulation cell lattice vectors (Block)      
%block species            : *! Species information (symbol, atomic number, numb 
C  C  6  4  6.0                                                                 
N  N  7  4  6.0                                                                 
%endblock species         : *! Species information (symbol, atomic number, numb 
%block speciespot         : *! Pseudopotential name for each species (Block)    
C  "../../pseudo/carbon.recpot"                                                 
N  "../../pseudo/nitrogen.recpot"                                               
%endblock speciespot      : *! Pseudopotential name for each species (Block)    
-------------------------------------------------------------------------------
-------------------------------------------------------------------------------

WARNING in pseudopotentials_read_species: string "GGA" found in pseudopotential
file "../../pseudo/carbon.recpot", yet xc_functional = "LDA".
 
WARNING in pseudopotentials_read_species: string "GGA" found in pseudopotential
file "../../pseudo/nitrogen.recpot", yet xc_functional = "LDA".
 
<<<<<<<<<<<<<<<<<<<<<<<<< Pseudopotential information >>>>>>>>>>>>>>>>>>>>>>>>>
File: ../../pseudo/carbon.recpot [ 2001 points up to Gmax=  52.9 (1/bohr)]
  Atomic number:  6;  ionic charge:  4.000000
    Shell 1: l = 0; rc = 1.48 bohr
File: ../../pseudo/nitrogen.recpot [ 2001 points up to Gmax=  52.9 (1/bohr)]
  Atomic number:  7;  ionic charge:  5.000000
    Shell 1: l = 0; rc = 1.48 bohr
<<<<<<<<<<<<<<<<<<<<<<<<<<<<<<<<<<<<<<< >>>>>>>>>>>>>>>>>>>>>>>>>>>>>>>>>>>>>>>

------------------------- Atom counting information ---------------------------
Symbol    Natoms    Nngwfs    Nprojs
  C         69       276        69
  N          1         4         1
.......   ......    ......    ......
Totals:     70       280        70
-------------------------------------------------------------------------------
 
Determining parallel strategy ...... done
WARNING in internal_electrons (energy_and_force_calculate):
        odd number of electrons in cell - spin-polarised calculation will be performed

Calculating Ewald energy ...         2465.255602 Hartree

Basis initialisation ...... done

============================== PSINC grid sizes ================================
                      Simulation cell:   49 x  49 x  49
                              FFT-box:   45 x  45 x  45
                                  PPD:    7 x   7 x   7
================================================================================

********************** Fourier parallelisation information *********************
       Coarse grid (whole simulation cell) dimensions:     49    49    49
          Real-space ('12') slabs/node (min max mean):     12    13    12
         Recip-space ('23') slabs/node (min max mean):      6     7     6
********************************************************************************

********************** Fourier parallelisation information *********************
       Double grid (whole simulation cell) dimensions:     98    98    98
          Real-space ('12') slabs/node (min max mean):     24    25    24
         Recip-space ('23') slabs/node (min max mean):     12    13    12
********************************************************************************

=========================== Sparse matrix information ==========================
                        Overlap matrix filling:  71.84%
                        Density kernel filling: 100.00%
              NGWF-Proj overlap matrix filling:  25.92%
                    Hamiltonian matrix filling:  72.65%
                  NGWF diagonal matrix filling:   1.43%
                             KS matrix filling: 100.00% 
                           KSKS matrix filling: 100.00% 
================================================================================

Sparse matrix initialisation ... done
NGWF initialisation ...... done

Up spin density kernel initialisation ...... done
Down spin density kernel initialisation ...... done
................................................................................
<<<<<<<<<<<<<<<< Penalty functional density kernel optimisation >>>>>>>>>>>>>>>>
~~~~~~~~~~~~~~~~~~~~~~~~~~~~~~~~~~~~~~~~~~~~~~~~~~~~~~~~~~~~~~~~~~~~~~~~~~~~~~~~
iter|       energy      |   rms grad  |  commutator |LScoef|CGcoef|      Ne    |
 1   -368.05306956064055 0.05730968558 0.02943688744 0.0228  0.000  281.00000000
 2   -373.91266276648003 0.04575468873 0.02906345738 0.1319 -0.780  281.00000000
 3   -374.34299059844528 0.04772515364 0.03640693341 0.0732  4.638  281.00000000

======================== Penalty functional minimisation =======================
   Final total energy     :    -390.775315876722
   Final penalty energy   :       9.871338228192
   RMS occupancy error    :       0.093881
   Occupancy bounds spin 1: [-0.145, 1.159]
   Occupancy bounds spin 2: [-0.147, 1.158]
================================================================================

Finished density kernel iterations (   3)

################################################################################
########################### NGWF CG iteration  001 #############################
################################################################################
****** Reciprocal space K.E. preconditioning with k_zero =  3.0000 a0^-1 *******
................................................................................
<<<<<<<<<<<<<< LNV (Original version) density kernel optimisation >>>>>>>>>>>>>>
~~~~~~~~~~~~~~~~~~~~~~~~~~~~~~~~~~~~~~~~~~~~~~~~~~~~~~~~~~~~~~~~~~~~~~~~~~~~~~~~
iter|       energy      |  rms DeltaK |  commutator |LScoef|CGcoef|      Ne    |
 1   -368.35447888648901 0.00000000000 0.01759245539 0.3620  0.000  281.00000000
 2   -368.52229119903939 0.00433572494 0.00541138709 0.7063  0.085  281.00000000
 3   -368.55053819259524 0.00189118502 0.00381713799 0.0000  0.000  281.00000000
Finished density kernel iterations (   3)

================================================================================
           ---------------- ENERGY COMPONENTS (Eh) ----------------
           | Kinetic                    :      203.03004126459371 |
           | Pseudopotential (local)    :    -5668.54903636054223 |
           | Pseudopotential (non-local):       69.04091573519366 |
           | Hartree                    :     2676.16138068329337 |
           | Exchange-correlation       :     -113.48944126241445 |
           | Ewald                      :     2465.25560174728071 |
           | Total                      :     -368.55053819259564 |
           --------------------------------------------------------
           Integrated density           :      280.99999999999818
           Integrated spin density      :        1.00000000000034
           Integrated |spin density|    :        1.04922296955218
================================================================================


------------------------------- NGWF line search -------------------------------
RMS gradient                =       0.02789092291388
Trial step length           =               0.122474
Gradient along search dir.  =       -254.43514746231
Functional at step 0        =    -368.55053819259524
Functional at step 1        =    -387.03382269074643
Functional predicted        =    -387.69823684404383
Selected quadratic step     =               0.150511
Conjugate gradients coeff.  =               0.000000
--------------------------- NGWF line search finished --------------------------
                                               
WARNING: maximum number of NGWF CG iterations (   1) exceeded!

                    <<<<< CALCULATION SUMMARY >>>>>
|ITER|    RMS GRADIENT   |     TOTAL ENERGY    |   step   |     Epredicted      
   1     0.02789092291388   -368.55053819259524  <-- CG                         
 
<QC>        [NGWF iterations]:        1
<QC>           [total_energy]:     -368.55053819
<QC>                     [F0]:     -368.55053819
<QC>                     [F1]:     -387.03382269
<QC>                     [F2]:        0.00000000
<QC>   [predicted_functional]:     -387.69823684
<QC>           [rms_gradient]:        0.027890922914
<QC>                 [G_init]:     -254.435147462314
<QC>        [quadratic_coeff]:        0.150511
<QC>            [cubic_coeff]:        0.000000
<QC>               [cg_coeff]:        0.000000
<QC>           [trial_length]:        0.122474
<QC>   [atom_1_population]:   3.989696
<QC>       [atom_1_charge]:   0.010304
<QC>         [atom_1_spin]:   0.007925
<QC>   [atom_2_population]:   4.011559
<QC>       [atom_2_charge]:  -0.011559
<QC>         [atom_2_spin]:  -0.001827
<QC>   [atom_3_population]:   3.981889
<QC>       [atom_3_charge]:   0.018111
<QC>         [atom_3_spin]:   0.030486

    Atomic Populations
    ------------------
Species  Ion    Total   Charge (e)    Spin (hbar)
=================================================
  C      1    3.989696   0.010304      0.01
  C      2    4.011559  -0.011559      0.00
  C      3    3.981889   0.018111      0.03
  C      4    3.969880   0.030120      0.00
  C      5    3.988740   0.011260      0.00
  C      6    3.703308   0.296692      0.06
  N      7    5.810508  -0.810508      0.06
  C      8    3.689285   0.310715      0.13
  C      9    3.995349   0.004651     -0.01
  C     10    4.027229  -0.027229      0.01
  C     11    4.008703  -0.008703      0.00
  C     12    3.994066   0.005934      0.02
  C     13    4.019167  -0.019167      0.00
  C     14    4.000552  -0.000552      0.00
  C     15    3.977156   0.022844      0.00
  C     16    4.019122  -0.019122      0.00
  C     17    3.996622   0.003378      0.00
  C     18    3.990679   0.009321      0.00
  C     19    4.000113  -0.000113      0.01
  C     20    3.984032   0.015968      0.00
  C     21    4.000908  -0.000908      0.01
  C     22    3.991299   0.008701      0.00
  C     23    3.692941   0.307059      0.04
  C     24    3.997451   0.002549      0.00
  C     25    3.982295   0.017705      0.00
  C     26    4.009655  -0.009655      0.00
  C     27    4.004808  -0.004808      0.01
  C     28    4.000202  -0.000202      0.00
  C     29    3.978866   0.021134      0.01
  C     30    4.011365  -0.011365     -0.01
  C     31    3.982754   0.017246      0.02
  C     32    4.010312  -0.010312      0.00
  C     33    3.973532   0.026468      0.01
  C     34    4.005315  -0.005315      0.00
  C     35    3.986409   0.013591      0.00
  C     36    3.971448   0.028552      0.00
  C     37    3.985072   0.014928      0.00
  C     38    3.989789   0.010211      0.00
  C     39    3.970605   0.029395      0.00
  C     40    3.970632   0.029368      0.00
  C     41    3.981899   0.018101      0.00
  C     42    4.012146  -0.012146      0.02
  C     43    4.018062  -0.018062      0.00
  C     44    3.984921   0.015079      0.00
  C     45    4.005884  -0.005884      0.00
  C     46    3.994347   0.005653      0.01
  C     47    3.999385   0.000615      0.00
  C     48    4.000667  -0.000667      0.01
  C     49    4.001453  -0.001453      0.00
  C     50    4.002214  -0.002214      0.00
  C     51    4.003481  -0.003481      0.00
  C     52    4.008736  -0.008736      0.00
  C     53    4.019461  -0.019461      0.00
  C     54    3.967170   0.032830      0.00
  C     55    3.988654   0.011346      0.00
  C     56    4.011428  -0.011428      0.00
  C     57    4.001742  -0.001742      0.00
  C     58    4.003657  -0.003657      0.01
  C     59    3.978626   0.021374      0.01
  C     60    4.007473  -0.007473      0.00
  C     61    4.002299  -0.002299      0.00
  C     62    3.987584   0.012416      0.00
  C     63    3.976804   0.023196      0.00
  C     64    4.005860  -0.005860      0.00
  C     65    4.003061  -0.003061      0.00
  C     66    3.981659   0.018341      0.00
  C     67    4.014692  -0.014692      0.00
  C     68    3.976237   0.023763      0.00
  C     69    4.009295  -0.009295      0.00
  C     70    3.981611   0.018389      0.00
=================================================

        Bond         Population      Spin       Length (bohr)
=============================================================
 C    53 -- C    54        1.16      0.00      2.62501
 C    10 -- C    11        1.13     -0.02      2.62515
 C    13 -- C    14        1.14      0.00      2.62516
 C    55 -- C    56        1.17      0.00      2.62521
 C    51 -- C    52        1.19      0.00      2.62523
 C    19 -- C    20        1.10     -0.02      2.62534
 C    57 -- C    58        1.17      0.00      2.62539
 C    59 -- C    60        1.15      0.00      2.62539
 N     7 -- C     8        0.21     -0.28      2.62548
 C    16 -- C    17        1.17      0.00      2.62553
 C    41 -- C    56        1.12      0.00      2.63571
 C    10 -- C    29        1.15      0.02      2.63585
 C    50 -- C    51        1.11      0.00      2.63585
 C    14 -- C    26        1.13      0.00      2.63585
 C     8 -- C    30        1.18      0.00      2.63586
 C    17 -- C    21        1.12      0.00      2.63587
 C    20 -- C    24        1.16      0.01      2.63590
 C    49 -- C    59        1.15      0.00      2.63593
 C    45 -- C    53        1.11      0.00      2.63594
 C    43 -- C    54        1.13      0.00      2.63594
 C    16 -- C    25        1.12      0.00      2.63597
 C    47 -- C    58        1.10      0.00      2.63600
 C    48 -- C    60        1.11      0.00      2.63600
 N     7 -- C    23        0.28     -0.22      2.63601
 C    19 -- C    22        1.13     -0.01      2.63603
 C    42 -- C    57        1.13      0.00      2.63605
 C    44 -- C    55        1.12     -0.01      2.63608
 C    11 -- C    28        1.10      0.00      2.63612
 C    46 -- C    52        1.11      0.00      2.63612
 C    13 -- C    27        1.12      0.00      2.63615
 C    52 -- C    64        1.10      0.00      2.64112
 C    55 -- C    65        1.12      0.00      2.64119
 C    15 -- C    16        1.12      0.00      2.64122
 C    53 -- C    64        1.11      0.00      2.64125
 C    59 -- C    63        1.11      0.00      2.64125
 C    12 -- C    13        1.11      0.00      2.64126
 C    57 -- C    61        1.11      0.00      2.64127
 C     6 -- N     7        0.25     -0.23      2.64133
 C     8 -- C     9        1.16      0.00      2.64134
 C    17 -- C    18        1.11      0.00      2.64134
 C    54 -- C    65        1.13      0.00      2.64138
 C    60 -- C    62        1.10      0.00      2.64140
 C    18 -- C    19        1.13      0.01      2.64141
 C    11 -- C    12        1.11      0.01      2.64144
 C     6 -- C    20        1.16     -0.01      2.64147
 C    58 -- C    62        1.13      0.00      2.64151
 C     9 -- C    10        1.03     -0.02      2.64153
 C    51 -- C    63        1.13      0.00      2.64156
 C    56 -- C    61        1.10      0.00      2.64159
 C    14 -- C    15        1.10      0.00      2.64168
 C    66 -- C    67        1.09      0.00      2.64281
 C    66 -- C    69        1.09      0.00      2.64286
 C    64 -- C    66        1.20      0.00      2.64297
 C    63 -- C    69        1.18      0.00      2.64297
 C     3 -- C     4        1.13      0.00      2.64300
 C     2 -- C     6        1.21      0.00      2.64300
 C    67 -- C    68        1.07      0.00      2.64301
 C     3 -- C     9        1.16     -0.01      2.64301
 C    61 -- C    68        1.20      0.00      2.64301
 C     4 -- C     5        1.10      0.00      2.64302
 C     1 -- C     2        1.06     -0.01      2.64304
 C    62 -- C    70        1.18      0.00      2.64305
 C    65 -- C    67        1.16      0.00      2.64306
 C     1 -- C    18        1.18      0.00      2.64311
 C     5 -- C    15        1.19      0.00      2.64312
 C    69 -- C    70        1.09      0.00      2.64313
 C    68 -- C    70        1.12      0.00      2.64316
 C     2 -- C     3        1.08     -0.01      2.64319
 C     4 -- C    12        1.18      0.00      2.64326
 C     1 -- C     5        1.10      0.00      2.64331
 C    43 -- C    44        1.12      0.00      2.65070
 C    27 -- C    28        1.09      0.00      2.65070
 C    45 -- C    46        1.14      0.00      2.65071
 C    41 -- C    42        1.12      0.00      2.65081
 C    29 -- C    30        1.06     -0.02      2.65084
 C    23 -- C    24        1.14     -0.01      2.65089
 C    47 -- C    48        1.12      0.00      2.65089
 C    25 -- C    26        1.11      0.00      2.65097
 C    49 -- C    50        1.11      0.00      2.65101
 C    21 -- C    22        1.10      0.00      2.65105
 C    39 -- C    42        1.13      0.00      2.65518
 C    30 -- C    31        1.10     -0.01      2.65524
 C    25 -- C    36        1.15      0.00      2.65530
 C    35 -- C    46        1.14      0.00      2.65535
 C    38 -- C    49        1.15      0.00      2.65536
 C    23 -- C    32        1.16      0.00      2.65537
 C    32 -- C    44        1.13     -0.01      2.65541
 C    27 -- C    37        1.16      0.00      2.65545
 C    31 -- C    41        1.16      0.00      2.65545
 C    22 -- C    34        1.14      0.00      2.65548
 C    34 -- C    45        1.12      0.00      2.65550
 C    29 -- C    39        1.14     -0.02      2.65552
 C    28 -- C    40        1.16      0.00      2.65555
 C    37 -- C    48        1.16      0.00      2.65555
 C    33 -- C    43        1.16      0.00      2.65556
 C    21 -- C    35        1.16      0.00      2.65558
 C    24 -- C    33        1.08     -0.02      2.65560
 C    26 -- C    38        1.14      0.00      2.65568
 C    36 -- C    50        1.15      0.00      2.65569
 C    40 -- C    47        1.16      0.00      2.65570
 C    39 -- C    40        1.06      0.00      2.68839
 C    33 -- C    34        1.02     -0.01      2.68847
 C    31 -- C    32        1.02     -0.01      2.68848
 C    37 -- C    38        1.04      0.00      2.68867
 C    35 -- C    36        1.05      0.00      2.68876
 C    52 -- C    53       -0.31      0.00      4.26941
 C    11 -- C    13       -0.34      0.00      4.26944
 C    54 -- C    55       -0.33      0.00      4.26950
 C    17 -- C    19       -0.35      0.00      4.26967
 C    14 -- C    16       -0.33      0.00      4.26970
 C    51 -- C    59       -0.34      0.00      4.26973
 C    58 -- C    60       -0.34      0.00      4.26974
 C    56 -- C    57       -0.35      0.00      4.26979
 N     7 -- C    20       -0.25      0.01      4.26986
 C     8 -- C    10       -0.35     -0.02      4.26994
 C    42 -- C    56       -0.31      0.00      4.27348
 C    44 -- C    54       -0.31      0.00      4.27367
 C    14 -- C    25       -0.34      0.00      4.27370
 C    46 -- C    53       -0.32      0.00      4.27376
 C    10 -- C    30       -0.33     -0.01      4.27377
 C    49 -- C    51       -0.33      0.00      4.27379
 C    11 -- C    27       -0.32      0.00      4.27380
 C    20 -- C    23       -0.33      0.00      4.27386
 C    45 -- C    52       -0.33      0.00      4.27390
 C    48 -- C    58       -0.31      0.00      4.27394
 C    19 -- C    21       -0.31      0.00      4.27396
 C    13 -- C    28       -0.30      0.00      4.27400
 C    43 -- C    55       -0.34      0.00      4.27401
 C    47 -- C    60       -0.31      0.00      4.27407
 C    17 -- C    22       -0.32      0.00      4.27410
 C     8 -- C    29       -0.32     -0.02      4.27413
 N     7 -- C    24       -0.25      0.01      4.27416
 C    50 -- C    59       -0.34      0.00      4.27420
 C    16 -- C    26       -0.34      0.00      4.27426
 C    41 -- C    57       -0.32      0.00      4.27432
 C     9 -- C    30       -0.33      0.01      4.27433
 C    42 -- C    61       -0.34      0.00      4.27438
 C     6 -- C    23       -0.22      0.05      4.27451
 C    49 -- C    63       -0.33      0.00      4.27453
 C    15 -- C    25       -0.33      0.00      4.27456
 C    44 -- C    65       -0.34      0.00      4.27460
 C     9 -- C    29       -0.33     -0.01      4.27461
 C    46 -- C    64       -0.34      0.00      4.27463
 C    18 -- C    21       -0.34      0.00      4.27464
 C    45 -- C    64       -0.32      0.00      4.27465
 C     6 -- C    24       -0.34      0.00      4.27469
 C    48 -- C    62       -0.34      0.00      4.27477
 C    43 -- C    65       -0.34      0.00      4.27480
 C    41 -- C    61       -0.31      0.00      4.27482
 C    18 -- C    22       -0.33      0.00      4.27485
 C    50 -- C    63       -0.33      0.00      4.27485
 C    47 -- C    62       -0.34      0.00      4.27488
 C    12 -- C    27       -0.32      0.00      4.27490
 C    15 -- C    26       -0.32      0.00      4.27501
 C    12 -- C    28       -0.35      0.00      4.27506
 C    67 -- C    69       -0.32      0.00      4.27625
 C    67 -- C    70       -0.33      0.00      4.27643
 C     3 -- C     5       -0.33      0.00      4.27648
 C    66 -- C    70       -0.32      0.00      4.27648
 C    66 -- C    68       -0.32      0.00      4.27650
 C     1 -- C     3       -0.31      0.00      4.27655
 C    68 -- C    69       -0.32      0.00      4.27661
 C     1 -- C     4       -0.32      0.00      4.27671
 C     2 -- C     5       -0.30      0.00      4.27673
 C     2 -- C     4       -0.35      0.00      4.27674
 C    30 -- C    41       -0.21      0.00      4.52669
 C    29 -- C    42       -0.21      0.00      4.52677
 C    26 -- C    49       -0.22      0.00      4.52682
 C    25 -- C    50       -0.22      0.00      4.52682
 C    21 -- C    46       -0.21      0.00      4.52693
 C    22 -- C    45       -0.20      0.00      4.52703
 C    23 -- C    44       -0.19      0.00      4.52706
 C    27 -- C    48       -0.21      0.00      4.52716
 C    24 -- C    43       -0.22      0.00      4.52725
 C    28 -- C    47       -0.22      0.00      4.52737
 C    41 -- C    55       -0.16      0.00      4.55026
 C    13 -- C    26       -0.17      0.00      4.55027
 C    43 -- C    53       -0.18      0.00      4.55031
 C    50 -- C    52       -0.18      0.00      4.55034
 C    11 -- C    29       -0.17      0.00      4.55043
 C    45 -- C    54       -0.16      0.00      4.55052
 C    47 -- C    57       -0.17      0.00      4.55060
 C    10 -- C    28       -0.15      0.00      4.55068
 N     7 -- C    30       -0.16      0.00      4.55076
 C    19 -- C    24       -0.18      0.00      4.55079
 C    20 -- C    22       -0.17      0.00      4.55080
 C    16 -- C    21       -0.17      0.00      4.55090
 C    49 -- C    60       -0.18      0.00      4.55091
 C    44 -- C    56       -0.17      0.00      4.55096
 C    48 -- C    59       -0.17      0.00      4.55096
 C    42 -- C    58       -0.17      0.00      4.55103
 C    14 -- C    27       -0.19      0.00      4.55104
 C     8 -- C    23       -0.09      0.05      4.55104
 C    17 -- C    25       -0.17      0.00      4.55114
 C    46 -- C    51       -0.18      0.00      4.55117
 C    51 -- C    64       -0.17      0.00      4.56310
 C    54 -- C    64       -0.18      0.00      4.56317
 C    56 -- C    65       -0.17      0.00      4.56320
 C    12 -- C    14       -0.16      0.00      4.56325
 C    10 -- C    12       -0.17     -0.01      4.56328
 C    53 -- C    65       -0.18      0.00      4.56330
 C    18 -- C    20       -0.16      0.00      4.56343
 C    60 -- C    63       -0.17      0.00      4.56354
 C     9 -- C    11       -0.17      0.00      4.56367
 C    58 -- C    61       -0.17      0.00      4.56368
 N     7 -- C     9       -0.13      0.01      4.56369
 C    13 -- C    15       -0.16      0.00      4.56370
 C    57 -- C    62       -0.17      0.00      4.56370
 C    59 -- C    62       -0.16      0.00      4.56371
 C    15 -- C    17       -0.16      0.00      4.56374
 C     6 -- C    19       -0.19     -0.01      4.56375
 C    52 -- C    63       -0.17      0.00      4.56375
 C     6 -- C     8       -0.06      0.05      4.56381
 C    55 -- C    61       -0.18      0.00      4.56381
 C    16 -- C    18       -0.17      0.00      4.56391
 C    63 -- C    66       -0.16      0.00      4.57428
 C    61 -- C    67       -0.16      0.00      4.57436
 C    65 -- C    66       -0.18      0.00      4.57448
 C     4 -- C    15       -0.16      0.00      4.57450
 C    64 -- C    67       -0.18      0.00      4.57451
 C     4 -- C     9       -0.17      0.00      4.57456
 C     1 -- C     6       -0.15      0.00      4.57465
 C    62 -- C    69       -0.17      0.00      4.57472
 C    64 -- C    69       -0.16      0.00      4.57481
 C     2 -- C    18       -0.17      0.00      4.57483
 C    62 -- C    68       -0.18      0.00      4.57485
 C     3 -- C     6       -0.19     -0.01      4.57486
 C     3 -- C    12       -0.16      0.00      4.57491
 C    61 -- C    70       -0.17      0.00      4.57495
 C    63 -- C    70       -0.17      0.00      4.57497
 C     2 -- C     9       -0.17      0.00      4.57502
 C     5 -- C    12       -0.18      0.00      4.57504
 C     5 -- C    18       -0.18      0.00      4.57506
 C    65 -- C    68       -0.15      0.00      4.57510
 C     1 -- C    15       -0.17      0.00      4.57524
 C     5 -- C    16       -0.18      0.00      4.57675
 C    59 -- C    69       -0.17      0.00      4.57682
 C    57 -- C    68       -0.17      0.00      4.57683
 C     3 -- C     8       -0.17     -0.01      4.57683
 C     1 -- C    17       -0.17      0.00      4.57684
 C     2 -- N     7       -0.14      0.00      4.57685
 C    52 -- C    66       -0.18      0.00      4.57687
 C    55 -- C    67       -0.15      0.00      4.57688
 C    53 -- C    66       -0.16      0.00      4.57699
 C    60 -- C    70       -0.16      0.00      4.57705
 C    58 -- C    70       -0.17      0.00      4.57712
 C    54 -- C    67       -0.17      0.00      4.57713
 C     2 -- C    20       -0.15      0.00      4.57717
 C    51 -- C    69       -0.17      0.00      4.57719
 C    56 -- C    68       -0.17      0.00      4.57725
 C     1 -- C    19       -0.16      0.00      4.57726
 C     3 -- C    10       -0.16      0.00      4.57727
 C     4 -- C    13       -0.16      0.00      4.57728
 C     4 -- C    11       -0.17      0.00      4.57743
 C     5 -- C    14       -0.16      0.00      4.57757
 C    40 -- C    42       -0.19      0.00      4.59784
 C    28 -- C    39       -0.18      0.00      4.59791
 C    31 -- C    44       -0.18      0.00      4.59796
 C    27 -- C    38       -0.18      0.00      4.59800
 C    36 -- C    46       -0.17      0.00      4.59803
 C    33 -- C    45       -0.17      0.00      4.59808
 C    34 -- C    43       -0.18      0.00      4.59813
 C    23 -- C    31       -0.18     -0.01      4.59819
 C    30 -- C    32       -0.17      0.00      4.59820
 C    29 -- C    40       -0.19      0.00      4.59828
 C    24 -- C    34       -0.17      0.00      4.59829
 C    22 -- C    33       -0.17      0.00      4.59830
 C    25 -- C    35       -0.17      0.00      4.59834
 C    32 -- C    41       -0.19      0.00      4.59835
 C    37 -- C    49       -0.19      0.00      4.59841
 C    39 -- C    47       -0.18      0.00      4.59845
 C    38 -- C    48       -0.18      0.00      4.59851
 C    26 -- C    37       -0.18      0.00      4.59870
 C    21 -- C    36       -0.18      0.00      4.59874
 C    35 -- C    50       -0.18      0.00      4.59887
 C    39 -- C    41       -0.15      0.00      4.61009
 C    29 -- C    31       -0.16      0.00      4.61014
 C    24 -- C    32       -0.14      0.01      4.61023
 C    35 -- C    45       -0.16      0.00      4.61024
 C    27 -- C    40       -0.15      0.00      4.61030
 C    32 -- C    43       -0.15      0.00      4.61030
 C    33 -- C    44       -0.16      0.00      4.61031
 C    28 -- C    37       -0.16      0.00      4.61043
 C    21 -- C    34       -0.16      0.00      4.61043
 C    26 -- C    36       -0.15      0.00      4.61047
 C    40 -- C    48       -0.16      0.00      4.61054
 C    38 -- C    50       -0.14      0.00      4.61055
 C    37 -- C    47       -0.17      0.00      4.61055
 C    34 -- C    46       -0.15      0.00      4.61056
 C    31 -- C    42       -0.14      0.00      4.61057
 C    23 -- C    33       -0.16      0.00      4.61061
 C    30 -- C    39       -0.14      0.00      4.61064
 C    22 -- C    35       -0.15      0.00      4.61089
 C    25 -- C    38       -0.14      0.00      4.61097
 C    36 -- C    49       -0.14      0.00      4.61098
 C     8 -- C    31       -0.16     -0.01      4.61518
 C    16 -- C    36       -0.14      0.00      4.61522
 C    38 -- C    59       -0.15      0.00      4.61527
 N     7 -- C    32       -0.12      0.00      4.61530
 C    17 -- C    35       -0.16      0.00      4.61530
 C    31 -- C    56       -0.16      0.00      4.61541
 C    37 -- C    60       -0.15      0.00      4.61543
 C    39 -- C    57       -0.14      0.00      4.61544
 C    32 -- C    55       -0.14      0.00      4.61553
 C    19 -- C    34       -0.16      0.00      4.61558
 C    20 -- C    33       -0.16      0.00      4.61558
 C    35 -- C    52       -0.14      0.00      4.61559
 C    10 -- C    39       -0.16      0.00      4.61563
 C    36 -- C    51       -0.14      0.00      4.61565
 C    34 -- C    53       -0.15      0.00      4.61570
 C    40 -- C    58       -0.15      0.00      4.61575
 C    14 -- C    38       -0.15      0.00      4.61575
 C    13 -- C    37       -0.15      0.00      4.61578
 C    33 -- C    54       -0.15      0.00      4.61584
 C    11 -- C    40       -0.15      0.00      4.61595
 C    43 -- C    45       -0.05      0.00      5.24117
 C    28 -- C    29       -0.04      0.00      5.24128
 C    41 -- C    44       -0.04      0.00      5.24153
 C    26 -- C    27       -0.05      0.00      5.24155
 C    42 -- C    47       -0.04      0.00      5.24163
 C    22 -- C    24       -0.04      0.00      5.24179
 C    46 -- C    50       -0.04      0.00      5.24179
 C    23 -- C    30       -0.04      0.00      5.24192
 C    48 -- C    49       -0.05      0.00      5.24215
 C    21 -- C    25       -0.04      0.00      5.24228
 C    29 -- C    41       -0.04      0.00      5.24550
 C    26 -- C    50       -0.04      0.00      5.24571
 C    21 -- C    45       -0.04      0.00      5.24579
 C    24 -- C    44       -0.04      0.00      5.24599
 C    30 -- C    42       -0.04      0.00      5.24606
 C    25 -- C    49       -0.04      0.00      5.24617
 C    27 -- C    47       -0.04      0.00      5.24619
 C    22 -- C    46       -0.04      0.00      5.24625
 C    28 -- C    48       -0.03      0.00      5.24625
 C    23 -- C    43       -0.04      0.00      5.24627
 C    64 -- C    65       -0.04      0.00      5.27486
 C    63 -- C    64       -0.04      0.00      5.27502
 C    12 -- C    15       -0.04      0.00      5.27507
 C     9 -- C    12       -0.04      0.00      5.27508
 C     6 -- C    18       -0.05      0.00      5.27519
 C    61 -- C    65       -0.04      0.00      5.27524
 C    62 -- C    63       -0.04      0.00      5.27544
 C    61 -- C    62       -0.04      0.00      5.27554
 C     6 -- C     9       -0.04      0.00      5.27568
 C    15 -- C    18       -0.04      0.00      5.27595
 C    56 -- C    67       -0.04      0.00      5.28043
 C    51 -- C    66       -0.04      0.00      5.28045
 C    60 -- C    69       -0.04      0.00      5.28070
 C     3 -- N     7       -0.02      0.00      5.28071
 C     5 -- C    17       -0.04      0.00      5.28072
 C    54 -- C    66       -0.04      0.00      5.28074
 C    53 -- C    67       -0.04      0.00      5.28086
 C     1 -- C    20       -0.04      0.00      5.28090
 C    58 -- C    68       -0.04      0.00      5.28091
 C     4 -- C    10       -0.03      0.00      5.28091
 C    57 -- C    70       -0.04      0.00      5.28091
 C     4 -- C    14       -0.04      0.00      5.28092
 C     1 -- C    16       -0.04      0.00      5.28094
 C     2 -- C     8       -0.04      0.00      5.28094
 C    59 -- C    70       -0.04      0.00      5.28104
 C    52 -- C    69       -0.04      0.00      5.28124
 C     2 -- C    19       -0.05      0.00      5.28125
 C     3 -- C    11       -0.04      0.00      5.28137
 C    55 -- C    68       -0.04      0.00      5.28138
 C     5 -- C    13       -0.04      0.00      5.28150
 C    31 -- C    55       -0.03      0.00      5.32509
 C    36 -- C    52       -0.03      0.00      5.32509
 N     7 -- C    31       -0.01      0.00      5.32520
 C    16 -- C    35       -0.03      0.00      5.32524
 C    13 -- C    38       -0.03      0.00      5.32525
 C    40 -- C    57       -0.03      0.00      5.32527
 C     8 -- C    32       -0.03      0.00      5.32543
 C    38 -- C    60       -0.03      0.00      5.32543
 C    37 -- C    59       -0.03      0.00      5.32545
 C    11 -- C    39       -0.03      0.00      5.32548
 C    20 -- C    34       -0.02      0.00      5.32552
 C    33 -- C    53       -0.03      0.00      5.32556
 C    17 -- C    36       -0.03      0.00      5.32560
 C    19 -- C    33       -0.01      0.01      5.32563
 C    34 -- C    54       -0.03      0.00      5.32575
 C    32 -- C    56       -0.03      0.00      5.32580
 C    39 -- C    58       -0.03      0.00      5.32589
 C    10 -- C    40       -0.03      0.00      5.32589
 C    35 -- C    51       -0.03      0.00      5.32621
 C    14 -- C    37       -0.03      0.00      5.32623
 C    32 -- C    33       -0.04      0.00      5.35833
 C    37 -- C    40       -0.03      0.00      5.35849
 C    31 -- C    39       -0.03      0.00      5.35854
 C    34 -- C    35       -0.03      0.00      5.35876
 C    36 -- C    38       -0.04      0.00      5.35920
=============================================================


------------------------------ TIMING INFORMATION ------------------------------
TOTAL TIME:     169.447s on     4 node(s)

Job completed: 27-05-2011 23:02 (+0100)

