 +---------------------------------------------------------------+
 |                                                               |
 |        ####### #     # ####### ####### ####### ######         |
 |        #     # ##    # #          #    #       #     #        |
 |        #     # # #   # #          #    #       #     #        |
 |        #     # #  #  # #####      #    #####   ######         |
 |        #     # #   # # #          #    #       #              |
 |        #     # #    ## #          #    #       #              |
 |        ####### #     # #######    #    ####### #              |
 |                                                               |
 |        Linear-Scaling Ab Initio Total Energy Program          |
 |                                                               |
 |          Release for academic collaborators of ODG            |
 |                                              Version 3.0      |
 |                                                               |
 +---------------------------------------------------------------+
 |                                                               |
 |  Authors:                                                     |
 |  Peter D. Haynes, Nicholas D. M. Hine, Arash. A. Mostofi,     |
 |  Mike C. Payne and Chris-Kriton Skylaris                      |
 |                                                               |
 |  Contributors:                                                |
 |  P. W. Avraam, S. J. Clark, O. Dieguez, S. M. M. Dubois,      |
 |  J. Dziedzic, H. H. Helal, Q. O. Hill, D. D. O`Regan,         |
 |  C. J. Pickard, M. I. J. Probert, L. Ratcliff, M. Robinson    |
 |  and A. Ruiz Serrano                                          |
 |                                                               |
 |                                   Copyright (c) 2004-2011     |
 |                                                               |
 |  Please cite:                                                 |
 |  "Introducing ONETEP: Linear-scaling density functional       |
 |   simulations on parallel computers".                         |
 |   C.-K. Skylaris, P. D. Haynes, A. A. Mostofi, M. C. Payne.   |
 |   J. Chem. Phys. 122 084119 (2005).                           |
 |                                                               |
 |          in all publications arising from your use of ONETEP. |
 |                                                               |
 +---------------------------------------------------------------+
 |                                                               |
 |   ONETEP is based on developments described in the following  |
 |   publications:                                               |
 |                                                               |
 |  "Nonorthogonal generalized Wannier function pseudopotential  |
 |   plane-wave method".                                         |
 |   C.-K. Skylaris, A. A. Mostofi, P. D. Haynes, O. Dieguez,    |
 |   M. C. Payne.                                                |
 |   Phys. Rev. B 66 035119 (2002).                              |
 |                                                               |
 |  "Preconditioned iterative minimization for linear-scaling    |
 |   electronic structure calculations".                         |
 |   A. A. Mostofi, P. D. Haynes, C.-K. Skylaris, M. C. Payne.   |
 |   J. Chem. Phys. 119(17), pp.8842-8848 (2003).                |
 |                                                               |
 |  "Total-energy calculations on a real space grid with         |
 |   localized functions and a plane-wave basis".                |
 |   A. A. Mostofi, C.-K. Skylaris, P. D. Haynes, M. C. Payne.   |
 |   Comput. Phys. Commun. 147, pp.788-802 (2002).               |
 |                                                               |
 |  "Accurate kinetic energy evaluation in electronic structure  |
 |   calculations with localized functions on real space grids"  |
 |   C.-K. Skylaris, A. A. Mostofi, P. D. Haynes, C. J. Pickard, |
 |   M. C. Payne.                                                |
 |   Comput. Phys. Commun. 140, pp.315-322 (2001).               |
 |                                                               |
 +---------------------------------------------------------------+

Job started: 27-05-2011 23:18 (+0100)

Running on     4 processors.

Reading parameters from file "h_bond.dat" ...... done
Reading geometry and species blocks from file "h_bond.dat" ...    
  PSINC grid spacing along a1 set to   0.600000000000a0 from input file.
  Number of PPD points along a1 set to 5 from input file.
  PSINC grid spacing along a2 set to   0.650000000000a0 from input file.
  Number of PPD points along a2 set to 4 from input file.
  PSINC grid spacing along a3 set to   0.700000000000a0 from input file.
  Number of PPD points along a3 set to 6 from input file.
... done
-------------------------------------------------------------------------------
---------------------------- RUN-TIME PARAMETERS ------------------------------
-------------------------------------------------------------------------------
task                       : SINGLEPOINT *! Type of calculation (String)        
cutoffenergy               : 20.0000000000000      hartree *! Plane wave kineti 
kernelcutoff               : 1000.00000000000 *! Density kernel radius in Bohr  
xcfunctional               : LDA *! Exchange-correlation functional (String)    
libxcxfuncid               : 0 *! Functional identifier for which exchange func 
libxccfuncid               : 0 *! Functional identifier for which correlation f 
charge                     : 0.000000000000000E+000 *! The total charge of the  
spin                       : 0 *! Total spin of system (Integer)                
spinpolarized              : F *! Switch for spin polarization (Boolean)        
spinpolarised              : F *! Switch for spin polarisation (Boolean)        
constantefield             : 0.0 0.0 0.0 *! Cartesian coordinates of constant e 
fftboxpref                 : 65 65 65 *! Preferred FFT box dimensions (String)  
ppdnpoints                 : 5  4  6 *! PPD edge length in grid points for each 
psincspacing               : 0.6  0.65  0.70 *! PSINC grid spacing in atomic un 
oldinput                   : F *! Read old-format input file (Boolean)          
develcode                  : *! For development code only (String)              
nnho                       : F *! Initialise NGWFs to nonorthogonal natural hyb 
ngwfhalo                   : -1.00000000000000 *! Halo extension to NGWF radii  
nonscforces                : F *! Include non self-consistent forces due to NGW 
maxitpalsermano            : 50 *! Maximum number of iterations for Palser-Mano 
maxitpen                   : 3 *! Max number of penalty functional iterations ( 
penparam                   : 4.00000000000000 *! Penalty functional parameter ( 
minitlnv                   : 3 *! Min number of LNV iterations (Integer)        
maxitlnv                   : 8 *! Max number of LNV iterations (Integer)        
maxitlnvcoarse             : 0 *! Max number of low-accuracy LNV iterations (In 
lnvthresholdorig           : 1.000000000000000E-009 *! LNV convergence threshol 
lnvcgtype                  : LNV_FLETCHER *! Type of CG coefficient for LNV den 
lnvcgmaxstep               : 3.00000000000000 *! Maximum length of trial step f 
exactlnv                   : F *! Use original LNV algorithm (Boolean)          
oldlnv                     : T *! Use LNV algorithm backwards compatible pre De 
lnvchecktrialsteps         : F *! Check stability of kernel at each trial step  
kerfix                     : 1 *! Density kernel fixing approach (Integer)      
maxitkernelfix             : 3 *! Maximum # iterations of Penalty Functional id 
initialdensrealspace       : F *! Construct initial density in real space from  
kerneldiis                 : F *! Use kernel DIIS in the inner loop (Boolean)   
kerneldiistype             : P *! Density mixing method (String)                
kerneldiismax              : 10 *! Max number of kernels saved during kernel DI 
kerneldiismaxit            : 25 *! Max number of kernel DIIS iterations (Intege 
kerneldiisthres            : 1.000000000000000E-009 *! Density mixing convergen 
kerneldiisliter            : 5 *! Number of linear mixing iterations (Integer)  
kerneldiiscin              : 0.900000000000000 *! Coefficient for the input ker 
kerneldiiscriteria         : 1000 *! Density mixing convergence criteria (Strin 
maxitngwfcg                : 60 *! Max number of NGWF conjugate gradients (CG)  
ngwfcgtype                 : NGWF_FLETCHER *! Type of CG coefficient for NGWF o 
ngwfcgmaxstep              : -8.00000000000000 *! Maximum length of trial step  
eleccgmax                  : 5 *! Number of NGWF iterations to reset CG (Intege 
precondscheme              : TETER *! Recip-space preconditioning scheme (Strin 
kzero                      : 3.00000000000000 *! KE preconditioning parameter ( 
rprecond                   : 2.00000000000000 *! Radial cut-off for real-space  
precondrecip               : T *! Recip-space KE preconditioning (Boolean)      
precondreal                : F *! Real-space KE preconditioning (Boolean)       
smoothscheme               : NONE *! Smoothing scheme for the NGWF gradients at 
rsmooth                    : 1.50000000000000      bohr *! Radius of the unshav 
ksmooth                    : 5.00000000000000 *! Characteristic wavelength of t 
occmix                     : 0.250000000000000 *! Mix fraction of occupancy pre 
kernelupdate               : F *! Update density kernel during NGWF line search 
kernelchristoffelupdate    : F *! Update density kernel during NGWF line search 
maxithotelling             : 50 *! Number of Hotelling iteration per NGWF chang 
maxresidhotelling          : 1.000000000000000E-012 *! Max allowed value in Hot 
maxitngwfdiis              : 0 *! Max number of NGWF DIIS steps (Integer)       
ngwfdiissize               : 4 *! Max size of the DIIS iterative subspace (Inte 
ngwfdiisreset              : 8 *! Max number of iteration for the resetting of  
ngwfdiismaxstep            : 2.00000000000000 *! Max length of trial step for N 
ngwfthresholdorig          : 2.000000000000000E-006 *! NGWF convergence thresho 
elecenergytol              : -1.000000000000000E-003 hartree *! Tolerance on to 
elecforcetol               : -1.000000000000000E-003 ha/bohr *! Tolerance on ma 
ngwfmaxgrad                : -2.000000000000000E-005 *! Maximum permissible val 
deltaeconv                 : T *! Use consecutive energy gains as a criterion f 
locpotintbatchsize         : 10 *! Size of NGWF in fftbox batch for locpot inte 
kineticintbatchsize        : 10 *! Size of NGWF in fftbox batch for kinetic int 
densitybatchsize           : 10 *! Size of NGWF in fftbox batch for charge dens 
ngwfgradbatchsize          : 10 *! Size of NGWF in fftbox batch for NGWF gradie 
densethreshold             : 0.400000000000000 *! Threshold for matrix segment  
commsgroupsize             : 4 *! Number of nodes in a group (determines comms  
ovlpfornonlocal            : F *! Overlap sparsity for nonlocal (Boolean)       
usespacefillingcurve       : T *! Re-arrange atoms according to space-filling c 
corehamdenskernguess       : T *! Initial guess for density kernel from core Ha 
checkatoms                 : T *! Check atoms on top of each other (Boolean)    
locpotscheme               : FULL *! Scheme for evaluating local potential matr 
smoothprojectors           : -0.400000000000000 *! Halfwidth of Gaussian filter 
smoothlocpspot             : -0.400000000000000 *! Halfwidth of Gaussian filter 
oddpsincgrid               : F *! Force odd number of points in simcell psinc g 
evenpsincgrid              : F *! Force even number of points in simcell psinc  
realspaceprojectors        : F *! Whether to evaluate and store projectors in r 
outputdetail               : VERBOSE *! Level of output detail (String)         
pawoutputdetail            : DEFAULT *! Level of output detail for PAW: BRIEF,  
timingslevel               : 0 *! Level of timings output: 0(none) 1(nodes summ 
writeparams                : T *! Output runtime parameters at startup (Boolean 
writeforces                : F *! Write ionic forces (Boolean)                  
writepositions             : T *! Write ionic positions each geometry or MD ste 
writexyz                   : F *! Output coordinates in .xyz file (Boolean)     
printqc                    : T *! Print Quality Control information (Boolean)   
cubeformat                 : F *! Allow .cube format for plot outputs (Boolean) 
dxformat                   : F *! Allow .dx format for plot outputs (Boolean)   
dxformatcoarse             : F *! Output only points on the coarse grid (Boolea 
dxformatdigits             : 7 *! Number of significant digits in .dx output (I 
grdformat                  : T *! Allow .grd format for plot outputs (Boolean)  
writedensityplot           : T *! Write the charge density in plotting format ( 
writengwfplot              : F *! Write NGWFs in plotting format (Boolean)      
writengwfgradplot          : F *! Write NGWF Gradients in plotting format (Bool 
writengwfradial            : F *! Write NGWFs radial distributions (Boolean)    
writengwfgradradial        : F *! Write NGWFs gradients radial distributions (B 
writeradialstep            : 5.000000000000000E-003 bohr *! Define the grid ste 
writeradialsmear           : 1.000000000000000E-002 bohr *! Define the gaussian 
readdenskern               : F *! Read density kernel restart information (Bool 
writedenskern              : F *! Write density kernel restart information (Boo 
readtightboxngwfs          : F *! Read in universal tightbox NGWFs restart info 
writetightboxngwfs         : F *! Write in universal tightbox NGWFs restart inf 
writeconvergeddkngwfs      : F *! Only write Density Kernel and NGWFs upon conv 
readswngwfs                : F *! Read NGWFs restart information in spherical w 
writeswngwfs               : F *! Write NGWFs restart information in spherical  
writemaxl                  : 3 *! Maximum angular momentum number when writing  
readmaxl                   : 3 *! Maximum angular momentum number when reading  
extransw                   : 0 *! Maximum number of zeros of the sph Bessel fun 
paw                        : F *! Uses a PAW construction to find correct core  
finegridscale              : 2.00000000000000 *! Ratio of size of fine grid to  
dblgridscale               : 2.00000000000000 *! Ratio of charge density / pote 
augfuncsrecip              : T *! Construct Augmentation functions in recip spa 
dispersion                 : 0 *! Select dispersion correction (Integer)        
vdwdcoeff                  : -1.00000000000000 *! Replacement VDW damping coeff 
hubbardmaxiter             : 0 *! Maximum number of DFT+U projector optimisatio 
hubbardenergytol           : 1.000000000000000E-008 hartree *! Energy tolerance 
hubbardconvwin             : 2 *! Energy convergence window when using DFT+U pr 
hubbardprojmixing          : 0.000000000000000E+000 *! Proportion of old Hubbar 
hubbardfunctional          : 1 *! DFT+U energy functional to use (Integer)      
hubbardtensorcorr          : 1 *! DFT+U projector tensorial correction to use ( 
hubbardngwfspinthreshold   : 2.000000000000000E-005 *! NGWF RMS  gradient thres 
coulombcutoffradius        : 0.000000000000000E+000 *! Radius of sphere or cyli 
coulombcutofflength        : 0.000000000000000E+000 *! Length of cylinder or wi 
coulombcutofftype          : NONE *! Type of cutoff coulomb interaction: NONE,  
coulombcutoffwriteint      : F *! Write real-space cutoff Coulomb interaction s 
pbccorrectioncutoff        : 0.000000000000000E+000 *! alpha*L cutoff parameter 
doproperties               : F *! Allow calculation of properties (Boolean)     
numeigenvalues             : 10 *! Number of energy and occupancy eigenvalues t 
homodensplot               : -1 *! Number of squared MOs to plot from HOMO and  
lumodensplot               : -1 *! Number of squared MOs to plot from LUMO and  
homoplot                   : 5 *! Number of MOs to plot from HOMO and lower (In 
lumoplot                   : 5 *! Number of MOs to plot from LUMO and higher (I 
dossmear                   : 3.674932438755288E-003 hartree *! Half width of sm 
ldossmear                  : 3.674932438755288E-003 hartree *! Lorentzian broad 
popncalculate              : F *! Allow population analysis (Boolean)           
popnbondcutoff             : 5.66917840375065      bohr *! Bond length cutoff f 
ngwfanalysis               : F *! Perform NGWF analysis (Boolean)               
polarisationcalculate      : F *! Allow calculation of polarisation (Boolean)   
spreadcalculate            : F *! Calculate spread of NGWFs (Boolean)           
geommodulusest             : 1.700000000000000E-002 ha/bohr**3 *! The estimated 
geomfrequencyest           : 7.600000000000000E-003 hartree *! The estimated av 
geomenergytol              : 1.000000000000000E-006 hartree *! Geometry optimiz 
geomforcetol               : 2.000000000000000E-003 ha/bohr *! Geometry optimiz 
geomdisptol                : 5.000000000000000E-003 bohr *! Geometry optimizati 
geommaxiter                : 50 *! Maximum number of geometry optimization iter 
geomconvergencewin         : 2 *! Geometry optimization convergence tolerance w 
geomcontinuation           : F *! Read information for continuation of a previo 
geombackupiter             : 1 *! Number of geometry optimisation iterations be 
geomresetdkngwfsiter       : 6 *! Number of geom iterations between resets of k 
geomreusedkngwfs           : T *! Re-use density kernel and NGWFs during geomet 
geomprintinvhessian        : F *! Write inverse Hessian to standard output (Boo 
geommethod                 : CARTESIAN *! Method for geometry optimization (Str 
tssearchmethod             : LSTQST *! Specifies method to be used for TS searc 
tssearchlstqstprotocol     : LSTMAXIMUM *! Specifies LSTQST protocol (String)   
tssearchqstmaxiter         : 5 *! Specifies maximum number of QST steps (Intege 
tssearchcgmaxiter          : 20 *! Specifies maximum number of CG steps (Intege 
tssearchforcetol           : 5.000000000000000E-003 ha/bohr *! Force tolerance  
tssearchdisptol            : 1.000000000000000E-002 bohr *! Displacement tolera 
mddeltat                   : 40.0000000000000      aut *! Molecular dynamics ti 
mdnumiter                  : 100 *! Maximum number of molecular dynamics iterat 
mdtemperature              : 9.500000000000000E-004 hartree *! Temperature for  
mdalgorithm                : LEAPFROGVERLET *! Integration algorithm for molecu 
mdthermostat               : NONE *! Thermostat for molecular dynamics (String) 
mdcollisionfrequency       : 0.152000000000000      hartree *! Collision freque 
mixdenskern                : 0 *! Number of coefficients used to build new gues 
mixngwfs                   : 0 *! Number of coefficients used to build new gues 
condreaddenskern           : F *! Read in conduction density kernel (Boolean)   
condreadtightboxngwfs      : F *! Read in universal tightbox conduction NGWFs ( 
condfixedshift             : F *! Fixed projected conduction Hamiltonian shift  
condcalcmaxeigen           : T *! Calculate maximum conduction Hamiltonian eige 
condnumstates              : 0 *! Number of conduction states to be optimised f 
condkernelcutoff           : 1000.00000000000 *! Conduction density kernel radi 
condinitshift              : 0.000000000000000E+000 *! Initial shifting factor  
condshiftbuffer            : 0.100000000000000 *! Additional buffer for updatin 
condnumextrastates         : 0 *! Number of extra conduction states for initial 
condnumextraits            : 0 *! Number of NGWF iterations with extra conducti 
condplotjointorbitals      : T *! Plot orbitals in the joint basis following a  
condplotvcorbitals         : T *! Plot orbitals in the val and cond NGWF basis  
condcalcopticalspectra     : F *! Calculate matrix elements for optical absorpt 
condspeccalcmommatels      : T *! Calculate momentum matrix elements (default t 
condspeccalcnonloccomm     : T *! Calculate nonlocal commutator for momentum ma 
condspeccontderiv          : T *! Calculate non-local commuator using continuou 
condspecnonloccommshift    : 1.000000000000000E-004 *! Finite difference shift  
bskpointpathspacing        : 0.188972700000000      1/bohr *! K-point spacing a 
bsnumeigenvalues           : -1 *! Num of energy and occ. eigenvalues to print  
bsunfold                   : 0 0 0 *! Number of times to unfold Brillouin zone  
bsmethod                   : TB *! Method to use: 'KP' or 'TB' (String)         
dotddft                    : F *! Allow Time-Dependent DFT calculation (Boolean 
tddftmaximumenergy         : 1.00000000000000      hartree *! Desired maximum o 
tddftresolution            : 1.000000000000000E-003 hartree *! Desired resoluti 
tddftpropagationmethod     : CRANKNICHOLSON *! Method used to integrate von Neu 
tddftsparsitylevel         : 0 *! Matrix sparsity when computing propagators e. 
tddfttammdancoff           : F *! Invoke Tamm-Dancoff decoupling approximation  
tddftdipolekickstrength    : 0.0 0.0 0.0 *! Maximum allowed phase shift in TDDF 
tddftxcfunctional          : LDA *! Exchange-correlation functional for TDDFT ( 
tddfthamiltonianmixing     : 0 *! Order of polynomial extrapolation to H(t + ha 
tddftdamping               : 0.000000000000000E+000 hartree *! Energy smearing  
tddftenforcedidempotency   : F *! Project out at each timestep that part of cha 
tddftmaxithotelling        : 50 *! Number of Hotelling iteration per propagatio 
tddftmaxresidhotelling     : 1.000000000000000E-018 *! Max allowed value in Hot 
tddftinvoverlapexact       : T *! Renew inverse overlap with O N^3 algorithm be 
isimplicitsolvent          : F *! Use implicit solvent? (Boolean)               
issmearedionrep            : F *! Implicit solvent: use smeared ions for electr 
isincludecavitation        : F *! Implicit solvent: include cavitation energy ( 
isdensitythreshold         : 7.800000000000000E-004 *! Implicit solvent: rho_0  
issolvationbeta            : 1.30000000000000 *! Implicit solvent: beta paramet 
isbulkpermittivity         : 1.00000000000000 *! Implicit solvent: eps_inf para 
ismultigriddefecterrortol  : 1.000000000000000E-002 *! Implicit solvent: stop c 
ismultigriderrortol        : 1.000000000000000E-005 *! Implicit solvent: stop c 
issmearedionwidth          : 0.800000000000000 *! Implicit solvent: Width of Ga 
issurfacethickness         : 2.000000000000000E-004 *! Implicit solvent: thickn 
issolventsurfacetension    : 4.762400000000000E-005 ha/bohr**2 *! Implicit solv 
ismultigridmaxiters        : 100 *! Implicit solvent: max number of iterations  
ismultigridnlevels         : 4 *! Implicit solvent: number of levels in multigr 
isdiscretizationorder      : 8 *! Implicit solvent: discretization order (2nd,  
isbccoarseness             : 5 *! Implicit solvent: controls boundary condition 
isbcsurfacecoarseness      : 1 *! Implicit solvent: controls boundary condition 
ischecksolvenergygrad      : F *! Implicit solvent: sanity check the energy gra 
issolvationmethod          : DIRECT *! Implicit solvent: direct or corrective m 
isdielectricmodel          : FIX_INITIAL *! Implicit solvent: how the cavity is 
isdielectricfunction       : FGF *! Implicit solvent: how the cavity is determi 
issolvationoutputdetail    : NONE *! Implicit solvent: controls extra output (S 
openbcionion               : F *! Force open BCs in ion-ion energy (Boolean)    
openbchartree              : F *! Force open BCs in Hartree potential (Boolean) 
openbcpspot                : F *! Force open BCs in local pseudopotential (Bool 
openbcpspotfinetunenptsx   : 100000 *! Open BCs in local pseudo, npts_x paramet 
openbcpspotfinetunealpha   : 0.300000000000000 *! Open BCs in local pseudo, alp 
openbcpspotfinetunef       : -1 *! Open BCs in local pseudo, fineness parameter 
%block positionsabs        : *! Cartesian positions for each atom (Block)       
O     24.887507   23.896975   22.647313                                         
C     27.731659   23.667449   22.643306                                         
H     28.655157   21.721170   22.637547                                         
H     28.955467   25.440371   22.646039                                         
O     19.766101   21.820471   22.648599                                         
H     17.687651   22.103070   22.651801                                         
H     20.725313   23.685785   22.651874                                         
%endblock positionsabs     : *! Cartesian positions for each atom (Block)       
%block latticecart         : *! The simulation cell lattice vectors (Block)     
51.00     0.00     0.00                                                         
0.00    52.00     0.00                                                          
0.00     0.00    46.20                                                          
%endblock latticecart      : *! The simulation cell lattice vectors (Block)     
%block species             : *! Species information (symbol, atomic number, num 
O    O    8    4    6.3                                                         
C    C    6    4    6.3                                                         
H    H    1    1    6.0                                                         
%endblock species          : *! Species information (symbol, atomic number, num 
%block speciespot          : *! Pseudopotential name for each species (Block)   
O    "../../pseudo/oxygen.recpot"                                               
C    "../../pseudo/carbon.recpot"                                               
H    "../../pseudo/hydrogen_coul.recpot"                                        
%endblock speciespot       : *! Pseudopotential name for each species (Block)   
%block speciesatomicset    : *! Atomic set name for each species (Block)        
O    "../../fireballs/O_SZ_6.0_recpot01_600eV.fbl"                              
C    "../../fireballs/C_SZ_6.0_recpot00_600eV.fbl"                              
H    "../../fireballs/H_SZ_6.0_recpot00_600eV.fbl"                              
%endblock speciesatomicset : *! Atomic set name for each species (Block)        
-------------------------------------------------------------------------------
-------------------------------------------------------------------------------

WARNING in pseudopotentials_read_species: string "GGA" found in pseudopotential
file "../../pseudo/carbon.recpot", yet xc_functional = "LDA".
 
<<<<<<<<<<<<<<<<<<<<<<<<< Pseudopotential information >>>>>>>>>>>>>>>>>>>>>>>>>
File: ../../pseudo/oxygen.recpot [ 2001 points up to Gmax=  52.9 (1/bohr)]
  Atomic number:  8;  ionic charge:  6.000000
    Shell 1: l = 0; rc = 1.31 bohr
File: ../../pseudo/carbon.recpot [ 2001 points up to Gmax=  52.9 (1/bohr)]
  Atomic number:  6;  ionic charge:  4.000000
    Shell 1: l = 0; rc = 1.48 bohr
File: ../../pseudo/hydrogen_coul.recpot [ 2001 points up to Gmax=  52.9 (1/bohr)]
  Atomic number:  1;  ionic charge:  1.000000
    Local potential
<<<<<<<<<<<<<<<<<<<<<<<<<<<<<<<<<<<<<<< >>>>>>>>>>>>>>>>>>>>>>>>>>>>>>>>>>>>>>>

------------------------- Atom counting information ---------------------------
Symbol    Natoms    Nngwfs    Nprojs
  O          2         8         2
  C          1         4         1
  H          4         4         0
.......   ......    ......    ......
Totals:      7        16         3
-------------------------------------------------------------------------------
 
Determining parallel strategy ...
... using space-filling curve
... NGWF load balancing: max      5;  min      1;  average      4
... Projector load balancing: max      1;  min      0;  average      1
... done

Calculating Ewald energy ...
              Ewald: real-space energy =      27.216224
        Ewald: reciprocal-space energy =       1.685107
         Ewald: (sum_charge)**2 Energy =       2.105033
         Ewald: (sum_charge**2) Energy =       2.561921
                          Ewald Energy =      24.234378

WARNING in ppd_strategy_fftbox_spec:
  FFT-box dimension 2 increased from  63 to preferred size  65
  FFT-box dimension 3 increased from  55 to preferred size  65
... FFT-box specified

Basis initialisation ...
... Atom positions lie inside simulation cell
... NGWF spheres initialised
... Projector spheres initialised
... NGWF tight boxes initialised
... NGWF basis size (local,global):       4452     15504
... Tight-boxes gathered
... done

============================== PSINC grid sizes ================================
                      Simulation cell:   85 x  80 x  66
                              FFT-box:   75 x  65 x  65
                                  PPD:    5 x   4 x   6
Grid space d1=  0.600000000000a0 (KE cutoff=  21.10093Eh = 574.18539eV)
Grid space d2=  0.650000000000a0 (KE cutoff=  17.97949Eh = 489.24673eV)
Grid space d3=  0.700000000000a0 (KE cutoff=  15.50272Eh = 421.85049eV)
================================================================================

********************** Fourier parallelisation information *********************
       Coarse grid (whole simulation cell) dimensions:     85    80    66

                 Real-space grid ('12' slabs):
                   Node    0:   16 (from    1 to   16)
                   Node    1:   17 (from   17 to   33)
                   Node    2:   17 (from   34 to   50)
                   Node    3:   16 (from   51 to   66)

                 Reciprocal-space grid ('23' slabs):
                   Node    0:   10 (from    1 to   10)
                   Node    1:   11 (from   11 to   21)
                   Node    2:   11 (from   22 to   32)
                   Node    3:   11 (from   33 to   43)
********************************************************************************

********************** Fourier parallelisation information *********************
       Double grid (whole simulation cell) dimensions:    170   160   132

                 Real-space grid ('12' slabs):
                   Node    0:   33 (from    1 to   33)
                   Node    1:   33 (from   34 to   66)
                   Node    2:   33 (from   67 to   99)
                   Node    3:   33 (from  100 to  132)

                 Reciprocal-space grid ('23' slabs):
                   Node    0:   21 (from    1 to   21)
                   Node    1:   22 (from   22 to   43)
                   Node    2:   22 (from   44 to   65)
                   Node    3:   21 (from   66 to   86)
********************************************************************************

=========================== Sparse matrix information ==========================
                        Overlap matrix filling: 100.00%
                        Density kernel filling: 100.00%
              NGWF-Proj overlap matrix filling:  75.00%
                    Hamiltonian matrix filling: 100.00%
                  NGWF diagonal matrix filling:  20.31%
                             KS matrix filling: 100.00% 
                           KSKS matrix filling: 100.00% 
================================================================================

Sparse matrix initialisation ... done
NGWF initialisation ...... done

============ Calculation of NGWF S^-1 using Hotelling algorithm ================ 
         Iteration  |  Frobenius norm and Maximum abs value    (of I-S*S_n^-1)   
               1       0.33840367E+01     0.86662042E+00
               2       0.30263889E+01     0.75569356E+00
               3       0.26053765E+01     0.59535307E+00
               4       0.21852973E+01     0.56181169E+00
               5       0.18183601E+01     0.52217501E+00
               6       0.14503872E+01     0.45399989E+00
               7       0.10083592E+01     0.34744442E+00
               8       0.56097081E+00     0.21027283E+00
               9       0.20737229E+00     0.81628740E-01
              10       0.30762695E-01     0.12922190E-01
              11       0.71198619E-03     0.32809233E-03
              12       0.42600759E-06     0.21165047E-06
              13       0.17284522E-12     0.87152507E-13
================================================================================
Up spin density kernel initialisation ... 
======= Optimisation of K by Palser-Manolopoulos canonical purification ======== 
         Iteration  |  Band structure energy |    c_n   
               1          -7.77974911754237    0.5704206
               2          -8.11547920782482    0.5579443
               3          -8.50533942168083    0.5448695
               4          -8.91235110579266    0.5298690
               5          -9.24987078733420    0.5017496
               6          -9.45617419516708    0.4400416
               7          -9.52803475374986    0.4032674
               8          -9.55725588089080    0.4290101
               9          -9.57837901109822    0.4676156
              10          -9.59144334393311    0.4925805
              11          -9.59509935385282    0.4995818
              12          -9.59532055305846    0.4999986
              13          -9.59532130174792    0.5003763
              14          -9.59532130175648    0.9987721
              15          -9.59532130175647    0.9997251
Final occupancy bounds: [    0.00000000000000:    0.99999999999999]
Closest occupancy to 0.5:     0.99999999999999
================================================================================
... done
   Initial electron number for spin 1:      20.00000000
     Final electron number for spin 1:      20.00000000
................................................................................
<<<<<<<<<<<<<<<< Penalty functional density kernel optimisation >>>>>>>>>>>>>>>>
~~~~~~~~~~~~~~~~~~~~~~~~~~~~~~~~~~~~~~~~~~~~~~~~~~~~~~~~~~~~~~~~~~~~~~~~~~~~~~~~
iter|       energy      |   rms grad  |  commutator |LScoef|CGcoef|      Ne    |
      Q0=E0+P0:     -36.151999801865=    -36.151999801865+      0.000000000000
    Trial step:       1.000000000000
            G0:     -17.123481482614
WARNING: minimum value of charge density: -0.0871
      Q1=E1+P1:     192.482125863094=    -19.887669824875+    212.369795687969
Quadratic term:    -245.757607147572
   Linear term:     -17.123481482614
  Optimal step:       0.034838151464
 Predicted min:     -36.450275022608
    !!! Quadratic minimum step length accepted !!!
 1    -36.15199980186462 0.25862830383 0.23281759645 0.0348  0.000   20.00000000
WARNING: minimum value of charge density: -0.0004
      Q0=E0+P0:     -36.649761555266=    -36.708363371478+      0.058601816212
    Trial step:       0.186649809709
            G0:      -2.440213862930
WARNING: minimum value of charge density: -0.0003
      Q1=E1+P1:     -37.050236612800=    -37.161216065103+      0.110979452302
Quadratic term:      -0.054990395630
   Linear term:      -0.455465453164
  Optimal step:       0.772976255105
 Predicted min:     -37.592875241977
    !!! Quadratic minimum step length accepted !!!
 2    -36.70836337147848 0.18121035882 0.21596516288 0.7730 -0.523   20.00000000
WARNING: minimum value of charge density: -0.0011
      Q0=E0+P0:     -37.003352443093=    -38.402002156571+      1.398649713479
    Trial step:       0.379836637154
WARNING: internal_polak_cg_coeff =  9.49604
WARNING: setting internal_polak_cg_coeff to zero
            G0:     -50.632467243791
WARNING: minimum value of charge density: -0.5023
      Q1=E1+P1:      -6.140736964587=    -18.086309044994+     11.945572080407
Quadratic term:     -50.094681567208
   Linear term:     -19.232066088702
  Optimal step:       0.072912363949
 Predicted min:     -38.849218882747
    !!! Quadratic minimum step length accepted !!!
 3    -38.40200215657141 0.44472809128 0.23262862999 0.0729  0.000   20.00000000
WARNING: minimum value of charge density: -0.0010

======================== Penalty functional minimisation =======================
   Final total energy     :     -38.331305205801
   Final penalty energy   :       0.498301777864
   RMS occupancy error    :       0.088238
   Occupancy bounds       : [-0.101, 1.174]
================================================================================

Finished density kernel iterations (   3)

################################################################################
########################### NGWF CG iteration  001 #############################
################################################################################
****** Reciprocal space K.E. preconditioning with k_zero =  3.0000 a0^-1 *******
   Initial electron number for spin 1:      20.00000000
     Final electron number for spin 1:      20.00000000

=================== Penalty functional idempotency correction ==================
 RMS occupancy error at iteration   1:  0.088238 (step -0.3798 Ne1=     20.0000)
 RMS occupancy error at iteration   2:  0.017238 (step -0.5422 Ne1=     20.0000)
 RMS occupancy error at iteration   3:  0.000787 (step -0.5015 Ne1=     20.0000)
            Final RMS occupancy error   :  0.000002 (Ne1=     20.0000)
               Final occupancy bounds   : [  0.0000,  1.0000]
================================================================================

................................................................................
<<<<<<<<<< LNV (Millam-Scuseria variant) density kernel optimisation >>>>>>>>>>>
~~~~~~~~~~~~~~~~~~~~~~~~~~~~~~~~~~~~~~~~~~~~~~~~~~~~~~~~~~~~~~~~~~~~~~~~~~~~~~~~
iter|       energy      |  rms DeltaK |  commutator |LScoef|CGcoef|      Ne    |
      ideal mu1:       0.000000179061
-mu(2tr(KS)-Ne):       0.000000000000
             Q0:     -37.833716064748
DltNe tr(Dir*S):       0.000000000000
             G0:      -2.014809582958
   RMS gradient:       0.088714992721
 1    -37.83371606474837 0.00000000000 0.14735125711 0.1000  0.000   20.00000000
      ideal mu1:       0.000000000000
-mu(2tr(KS)-Ne):       0.000000000000
             Q0:     -38.016239559428
DltNe tr(Dir*S):       0.000000000000
             G0:      -2.445217363056
   RMS gradient:       0.072672563229
 2    -38.01623955942799 0.01220177336 0.12213982650 0.1000  0.671   20.00000000
      ideal mu1:       0.000000000000
 3    -38.21345919413779 0.01794135919 0.08297631597 0.0000  0.000   20.00000000
Finished density kernel iterations (   3)

           ........................................................
           | *** NGWF optimisation not converged ***              |
           | RMS NGWF gradient =    0.00858280540435              |
           | Criteria not satisfied:                              |
           | -> RMS NGWF gradient higher than set threshold.      |
           ========================================================

------------------------------- NGWF line search -------------------------------
============ Calculation of NGWF S^-1 using Hotelling algorithm ================ 
         Iteration  |  Frobenius norm and Maximum abs value    (of I-S*S_n^-1)   
               1       0.49585149E-01     0.26544341E-01
               2       0.10848920E-02     0.70515171E-03
               3       0.71838963E-06     0.49765958E-06
               4       0.35786678E-12     0.24780178E-12
================================================================================
============ Calculation of NGWF S^-1 using Hotelling algorithm ================ 
         Iteration  |  Frobenius norm and Maximum abs value    (of I-S*S_n^-1)   
               1       0.98128215E-01     0.55074381E-01
               2       0.43703456E-02     0.30352538E-02
               3       0.11672245E-04     0.92198514E-05
               4       0.97730018E-10     0.85087826E-10
               5       0.15341898E-14     0.66613381E-15
================================================================================
RMS gradient                =       0.00858280540435
Trial step length           =               0.122474
Gradient along search dir.  =         -4.36801307431
Functional at step 0        =     -38.21345919413779
Functional at step 1        =     -38.65219569652443
Functional predicted        =     -38.95694405459530
Selected quadratic step     =               0.340422
Conjugate gradients coeff.  =               0.000000
--------------------------- NGWF line search finished --------------------------
                                               

################################################################################
########################### NGWF CG iteration  002 #############################
################################################################################
****** Reciprocal space K.E. preconditioning with k_zero =  3.0000 a0^-1 *******
   Initial electron number for spin 1:      20.58064302
     Final electron number for spin 1:      20.00000000

=================== Penalty functional idempotency correction ==================
 RMS occupancy error at iteration   1:  0.026967 (step -0.4417 Ne1=     20.0000)
 RMS occupancy error at iteration   2:  0.001253 (step -0.5003 Ne1=     20.0000)
 RMS occupancy error at iteration   3:  0.000007 (step -0.5000 Ne1=     20.0000)
            Final RMS occupancy error   :  0.000000 (Ne1=     20.0000)
               Final occupancy bounds   : [  0.0000,  1.0000]
================================================================================

................................................................................
<<<<<<<<<< LNV (Millam-Scuseria variant) density kernel optimisation >>>>>>>>>>>
~~~~~~~~~~~~~~~~~~~~~~~~~~~~~~~~~~~~~~~~~~~~~~~~~~~~~~~~~~~~~~~~~~~~~~~~~~~~~~~~
iter|       energy      |  rms DeltaK |  commutator |LScoef|CGcoef|      Ne    |
      ideal mu1:       0.000000000050
-mu(2tr(KS)-Ne):       0.000000000000
             Q0:     -38.980484328629
DltNe tr(Dir*S):       0.000000000000
             G0:      -0.118569052775
   RMS gradient:       0.021521160805
-mu(2tr(KS)-Ne):       0.000000000000
     Trial step:       0.500000000000
             Q1:     -39.020980870774
 Quadratic coef:       0.018787984243
 Linear coef   :      -0.059284526387
           Qmin:     -39.027251653740
Quadratic minimum step length (  0.788862253954) accepted
 1    -38.98048432862907 0.00000000000 0.03979680598 0.7889  0.000   20.00000000
      ideal mu1:      -0.000000000030
-mu(2tr(KS)-Ne):       0.000000000000
             Q0:     -39.026388179207
DltNe tr(Dir*S):       0.000000000000
             G0:      -0.032458822280
   RMS gradient:       0.011488008595
-mu(2tr(KS)-Ne):       0.000000000000
     Trial step:       0.628037520358
             Q1:     -39.037942970143
 Quadratic coef:       0.008830567323
 Linear coef   :      -0.020385358259
           Qmin:     -39.038153075395
Quadratic minimum step length (  0.724912080087) accepted
 2    -39.02638817920688 0.02163522267 0.01699106985 0.7249  0.285   20.00000000
      ideal mu1:      -0.000000000001
 3    -39.03852981791558 0.01289742542 0.01074527837 0.0000  0.000   20.00000000
Finished density kernel iterations (   3)

           ........................................................
           | *** NGWF optimisation not converged ***              |
           | RMS NGWF gradient =    0.00221973884939              |
           | Criteria not satisfied:                              |
           | -> RMS NGWF gradient higher than set threshold.      |
           ========================================================

------------------------------- NGWF line search -------------------------------
============ Calculation of NGWF S^-1 using Hotelling algorithm ================ 
         Iteration  |  Frobenius norm and Maximum abs value    (of I-S*S_n^-1)   
               1       0.18511532E-01     0.71676715E-02
               2       0.11542881E-03     0.51684885E-04
               3       0.54407273E-08     0.26891551E-08
               4       0.20607366E-14     0.11102230E-14
================================================================================
============ Calculation of NGWF S^-1 using Hotelling algorithm ================ 
         Iteration  |  Frobenius norm and Maximum abs value    (of I-S*S_n^-1)   
               1       0.29912473E-01     0.11830050E-01
               2       0.30735052E-03     0.14066713E-03
               3       0.37564346E-07     0.19903937E-07
               4       0.15904830E-14     0.66613381E-15
================================================================================
RMS gradient                =       0.00221973884939
Trial step length           =               0.204189
Gradient along search dir.  =         -0.29239998367
Functional at step 0        =     -39.03852981791558
Functional at step 1        =     -39.08608969826395
Functional predicted        =     -39.11190747372082
Selected quadratic step     =               0.501899
Conjugate gradients coeff.  =               0.066888
--------------------------- NGWF line search finished --------------------------
                                               

################################################################################
########################### NGWF CG iteration  003 #############################
################################################################################
****** Reciprocal space K.E. preconditioning with k_zero =  3.0000 a0^-1 *******
   Initial electron number for spin 1:      20.11183452
     Final electron number for spin 1:      20.00000000

=================== Penalty functional idempotency correction ==================
 RMS occupancy error at iteration   1:  0.005286 (step -0.4847 Ne1=     20.0000)
 RMS occupancy error at iteration   2:  0.000083 (step -0.5000 Ne1=     20.0000)
            Final RMS occupancy error   :  0.000000 (Ne1=     20.0000)
               Final occupancy bounds   : [  0.0000,  1.0000]
================================================================================

................................................................................
<<<<<<<<<< LNV (Millam-Scuseria variant) density kernel optimisation >>>>>>>>>>>
~~~~~~~~~~~~~~~~~~~~~~~~~~~~~~~~~~~~~~~~~~~~~~~~~~~~~~~~~~~~~~~~~~~~~~~~~~~~~~~~
iter|       energy      |  rms DeltaK |  commutator |LScoef|CGcoef|      Ne    |
      ideal mu1:      -0.000000004602
-mu(2tr(KS)-Ne):       0.000000000000
             Q0:     -39.112863660933
DltNe tr(Dir*S):       0.000000000000
             G0:      -0.014411685887
   RMS gradient:       0.007503042583
-mu(2tr(KS)-Ne):       0.000000000000
     Trial step:       0.674738456926
             Q1:     -39.115611547159
 Quadratic coef:       0.006976232471
 Linear coef   :      -0.009724118697
           Qmin:     -39.116252255165
Quadratic minimum step length (  0.470256465215) accepted
 1    -39.11286366093308 0.00000000000 0.01120272870 0.4703  0.000   20.00000000
      ideal mu1:       0.000000000000
-mu(2tr(KS)-Ne):       0.000000000000
             Q0:     -39.116246632892
DltNe tr(Dir*S):       0.000000000000
             G0:      -0.001578333955
   RMS gradient:       0.002480757799
-mu(2tr(KS)-Ne):       0.000000000000
     Trial step:       0.563293992245
             Q1:     -39.116730115288
 Quadratic coef:       0.000405583639
 Linear coef   :      -0.000889066035
           Qmin:     -39.116733855710
Quadratic minimum step length (  0.617388755392) accepted
 2    -39.11624663289206 0.00523068637 0.00440286682 0.6174  0.109   20.00000000
      ideal mu1:       0.000000000000
 3    -39.11673436609490 0.00238154174 0.00217966023 0.0000  0.000   20.00000000
Finished density kernel iterations (   3)

           ........................................................
           | *** NGWF optimisation not converged ***              |
           | RMS NGWF gradient =    0.00108281817243              |
           | Criteria not satisfied:                              |
           | -> RMS NGWF gradient higher than set threshold.      |
           ========================================================

------------------------------- NGWF line search -------------------------------
============ Calculation of NGWF S^-1 using Hotelling algorithm ================ 
         Iteration  |  Frobenius norm and Maximum abs value    (of I-S*S_n^-1)   
               1       0.17799501E-01     0.52452259E-02
               2       0.12494775E-03     0.38840186E-04
               3       0.82494541E-08     0.26834269E-08
               4       0.16341552E-14     0.66613381E-15
================================================================================
============ Calculation of NGWF S^-1 using Hotelling algorithm ================ 
         Iteration  |  Frobenius norm and Maximum abs value    (of I-S*S_n^-1)   
               1       0.10925306E-01     0.33290540E-02
               2       0.47580144E-04     0.16605793E-04
               3       0.12165858E-08     0.48932747E-09
               4       0.16233097E-14     0.88817842E-15
================================================================================
RMS gradient                =       0.00108281817243
Trial step length           =               0.320128
Gradient along search dir.  =         -0.07225293826
Functional at step 0        =     -39.11673436609490
Functional at step 1        =     -39.13243622050367
Functional predicted        =     -39.13473991327233
Selected quadratic step     =               0.498403
Conjugate gradients coeff.  =               0.237962
--------------------------- NGWF line search finished --------------------------
                                               

################################################################################
########################### NGWF CG iteration  004 #############################
################################################################################
****** Reciprocal space K.E. preconditioning with k_zero =  3.0000 a0^-1 *******
   Initial electron number for spin 1:      20.05289932
     Final electron number for spin 1:      20.00000000

=================== Penalty functional idempotency correction ==================
 RMS occupancy error at iteration   1:  0.002224 (step -0.4940 Ne1=     20.0000)
 RMS occupancy error at iteration   2:  0.000016 (step -0.5000 Ne1=     20.0000)
            Final RMS occupancy error   :  0.000000 (Ne1=     20.0000)
               Final occupancy bounds   : [  0.0000,  1.0000]
================================================================================

................................................................................
<<<<<<<<<< LNV (Millam-Scuseria variant) density kernel optimisation >>>>>>>>>>>
~~~~~~~~~~~~~~~~~~~~~~~~~~~~~~~~~~~~~~~~~~~~~~~~~~~~~~~~~~~~~~~~~~~~~~~~~~~~~~~~
iter|       energy      |  rms DeltaK |  commutator |LScoef|CGcoef|      Ne    |
      ideal mu1:      -0.000000000380
-mu(2tr(KS)-Ne):       0.000000000000
             Q0:     -39.134948657300
DltNe tr(Dir*S):       0.000000000000
             G0:      -0.006336309121
   RMS gradient:       0.004975058543
-mu(2tr(KS)-Ne):       0.000000000000
     Trial step:       0.589721439997
             Q1:     -39.135652664378
 Quadratic coef:       0.003032650261
 Linear coef   :      -0.003736657339
           Qmin:     -39.136099680899
Quadratic minimum step length (  0.363310431017) accepted
 1    -39.13494865729986 0.00000000000 0.00849745024 0.3633  0.000   20.00000000
      ideal mu1:       0.000000000000
-mu(2tr(KS)-Ne):       0.000000000000
             Q0:     -39.136097940669
DltNe tr(Dir*S):       0.000000000000
             G0:      -0.000390762772
   RMS gradient:       0.001235756123
-mu(2tr(KS)-Ne):       0.000000000000
     Trial step:       0.462873579442
             Q1:     -39.136203475571
 Quadratic coef:       0.000075338861
 Linear coef   :      -0.000180873763
           Qmin:     -39.136206501236
Quadratic minimum step length (  0.555634135372) accepted
 2    -39.13609794066883 0.00239342929 0.00197294813 0.5556  0.062   20.00000000
      ideal mu1:       0.000000000000
 3    -39.13620652921168 0.00104936810 0.00109170661 0.0000  0.000   20.00000000
Finished density kernel iterations (   3)

           ........................................................
           | *** NGWF optimisation not converged ***              |
           | RMS NGWF gradient =    0.00053806304089              |
           | Criteria not satisfied:                              |
           | -> RMS NGWF gradient higher than set threshold.      |
           ========================================================

------------------------------- NGWF line search -------------------------------
============ Calculation of NGWF S^-1 using Hotelling algorithm ================ 
         Iteration  |  Frobenius norm and Maximum abs value    (of I-S*S_n^-1)   
               1       0.16364864E-01     0.40107452E-02
               2       0.12068984E-03     0.31194268E-04
               3       0.93062184E-08     0.26263298E-08
               4       0.15308792E-14     0.55511151E-15
================================================================================
============ Calculation of NGWF S^-1 using Hotelling algorithm ================ 
         Iteration  |  Frobenius norm and Maximum abs value    (of I-S*S_n^-1)   
               1       0.77581617E-02     0.21085896E-02
               2       0.27910822E-04     0.82400126E-05
               3       0.51784397E-09     0.16825064E-09
               4       0.18107552E-14     0.66613381E-15
================================================================================
RMS gradient                =       0.00053806304089
Trial step length           =               0.399441
Gradient along search dir.  =         -0.01857076903
Functional at step 0        =     -39.13620652921168
Functional at step 1        =     -39.14103285745739
Functional predicted        =     -39.14151460967739
Selected quadratic step     =               0.571660
Conjugate gradients coeff.  =               0.246919
--------------------------- NGWF line search finished --------------------------
                                               

################################################################################
########################### NGWF CG iteration  005 #############################
################################################################################
****** Reciprocal space K.E. preconditioning with k_zero =  3.0000 a0^-1 *******
   Initial electron number for spin 1:      20.02795885
     Final electron number for spin 1:      20.00000000

=================== Penalty functional idempotency correction ==================
 RMS occupancy error at iteration   1:  0.001394 (step -0.4976 Ne1=     20.0000)
 RMS occupancy error at iteration   2:  0.000006 (step -0.5000 Ne1=     20.0000)
            Final RMS occupancy error   :  0.000000 (Ne1=     20.0000)
               Final occupancy bounds   : [  0.0000,  1.0000]
================================================================================

................................................................................
<<<<<<<<<< LNV (Millam-Scuseria variant) density kernel optimisation >>>>>>>>>>>
~~~~~~~~~~~~~~~~~~~~~~~~~~~~~~~~~~~~~~~~~~~~~~~~~~~~~~~~~~~~~~~~~~~~~~~~~~~~~~~~
iter|       energy      |  rms DeltaK |  commutator |LScoef|CGcoef|      Ne    |
      ideal mu1:      -0.000000000160
-mu(2tr(KS)-Ne):       0.000000000000
             Q0:     -39.141606097278
DltNe tr(Dir*S):       0.000000000000
             G0:      -0.001192622379
   RMS gradient:       0.002158397825
-mu(2tr(KS)-Ne):       0.000000000000
     Trial step:       0.507137418359
             Q1:     -39.141830940573
 Quadratic coef:       0.000379980139
 Linear coef   :      -0.000604823435
           Qmin:     -39.141846775243
Quadratic minimum step length (  0.403611351739) accepted
 1    -39.14160609727756 0.00000000000 0.00369774568 0.4036  0.000   20.00000000
      ideal mu1:       0.000000000000
-mu(2tr(KS)-Ne):       0.000000000000
             Q0:     -39.141846725102
DltNe tr(Dir*S):       0.000000000000
             G0:      -0.000139485029
   RMS gradient:       0.000736721877
-mu(2tr(KS)-Ne):       0.000000000000
     Trial step:       0.452422832029
             Q1:     -39.141887435248
 Quadratic coef:       0.000022396066
 Linear coef   :      -0.000063106212
           Qmin:     -39.141891179271
Quadratic minimum step length (  0.637404152697) accepted
 2    -39.14184672510219 0.00115647242 0.00122042724 0.6374  0.117   20.00000000
      ideal mu1:       0.000000000000
 3    -39.14189170592758 0.00072080718 0.00080362743 0.0000  0.000   20.00000000
Finished density kernel iterations (   3)

           ........................................................
           | *** NGWF optimisation not converged ***              |
           | RMS NGWF gradient =    0.00032899239522              |
           | Criteria not satisfied:                              |
           | -> RMS NGWF gradient higher than set threshold.      |
           ========================================================

================================================================================
           ---------------- ENERGY COMPONENTS (Eh) ----------------
           | Kinetic                    :       25.11231077150941 |
           | Pseudopotential (local)    :     -141.39667963608392 |
           | Pseudopotential (non-local):        5.49213640024059 |
           | Hartree                    :       56.80022873226723 |
           | Exchange-correlation       :       -9.38426642789844 |
           | Ewald                      :       24.23437845403755 |
           | Total                      :      -39.14189170592758 |
           --------------------------------------------------------
           ------ LOCAL ENERGY COMPONENTS FROM MATRIX TRACES ------
           | Pseudopotential (local)    :     -141.39667963608264 |
           | Hartree                    :       56.80022873226609 |
           --------------------------------------------------------
           Integrated density           :       19.99999999999998
           Integrated density tr(KS)    :       20.00000000000000
================================================================================


------------------------------- NGWF line search -------------------------------
============ Calculation of NGWF S^-1 using Hotelling algorithm ================ 
         Iteration  |  Frobenius norm and Maximum abs value    (of I-S*S_n^-1)   
               1       0.18261572E-01     0.45025961E-02
               2       0.16369295E-03     0.53307964E-04
               3       0.18173659E-07     0.60646546E-08
               4       0.15606335E-14     0.66613381E-15
================================================================================
============ Calculation of NGWF S^-1 using Hotelling algorithm ================ 
         Iteration  |  Frobenius norm and Maximum abs value    (of I-S*S_n^-1)   
               1       0.22750397E-02     0.56888373E-03
               2       0.26410864E-05     0.84947503E-06
               3       0.49330441E-11     0.16797744E-11
               4       0.11582263E-14     0.44408921E-15
================================================================================
RMS gradient                =       0.00032899239522
Trial step length           =               0.477854
Gradient along search dir.  =         -0.00688310521
Functional at step 0        =     -39.14189170592758
Functional at step 1        =     -39.14370577016036
Functional predicted        =     -39.14372524878172
Selected quadratic step     =               0.532766
Conjugate gradients coeff.  =               0.373857
--------------------------- NGWF line search finished --------------------------
                                               

################################################################################
########################### NGWF CG iteration  006 #############################
################################################################################
****** Reciprocal space K.E. preconditioning with k_zero =  3.0000 a0^-1 *******
   Initial electron number for spin 1:      20.01605046
     Final electron number for spin 1:      20.00000000

=================== Penalty functional idempotency correction ==================
 RMS occupancy error at iteration   1:  0.000996 (step -0.4986 Ne1=     20.0000)
 RMS occupancy error at iteration   2:  0.000003 (step -0.5000 Ne1=     20.0000)
            Final RMS occupancy error   :  0.000000 (Ne1=     20.0000)
               Final occupancy bounds   : [  0.0000,  1.0000]
================================================================================

................................................................................
<<<<<<<<<< LNV (Millam-Scuseria variant) density kernel optimisation >>>>>>>>>>>
~~~~~~~~~~~~~~~~~~~~~~~~~~~~~~~~~~~~~~~~~~~~~~~~~~~~~~~~~~~~~~~~~~~~~~~~~~~~~~~~
iter|       energy      |  rms DeltaK |  commutator |LScoef|CGcoef|      Ne    |
      ideal mu1:      -0.000000000055
-mu(2tr(KS)-Ne):       0.000000000000
             Q0:     -39.143775333722
DltNe tr(Dir*S):       0.000000000000
             G0:      -0.000335205141
   RMS gradient:       0.001144288024
-mu(2tr(KS)-Ne):       0.000000000000
     Trial step:       0.537006696337
             Q1:     -39.143844853448
 Quadratic coef:       0.000110487679
 Linear coef   :      -0.000180007405
           Qmin:     -39.143848651096
Quadratic minimum step length (  0.437447787944) accepted
 1    -39.14377533372241 0.00000000000 0.00197389031 0.4374  0.000   20.00000000
      ideal mu1:       0.000000000000
-mu(2tr(KS)-Ne):       0.000000000000
             Q0:     -39.143848631956
DltNe tr(Dir*S):       0.000000000000
             G0:      -0.000054244225
   RMS gradient:       0.000460237912
-mu(2tr(KS)-Ne):       0.000000000000
     Trial step:       0.484677615971
             Q1:     -39.143867731126
 Quadratic coef:       0.000007191791
 Linear coef   :      -0.000026290962
           Qmin:     -39.143872659860
Quadratic minimum step length (  0.885915647404) accepted
 2    -39.14384863195572 0.00067432039 0.00080520259 0.8859  0.162   20.00000000
      ideal mu1:       0.000000000000
 3    -39.14387239945481 0.00058364576 0.00073107409 0.0000  0.000   20.00000000
Finished density kernel iterations (   3)

           ........................................................
           | *** NGWF optimisation not converged ***              |
           | RMS NGWF gradient =    0.00019059621871              |
           | Criteria not satisfied:                              |
           | -> RMS NGWF gradient higher than set threshold.      |
           ========================================================

------------------------------- NGWF line search -------------------------------
============ Calculation of NGWF S^-1 using Hotelling algorithm ================ 
         Iteration  |  Frobenius norm and Maximum abs value    (of I-S*S_n^-1)   
               1       0.15750785E-01     0.47739245E-02
               2       0.12442394E-03     0.48458605E-04
               3       0.10531234E-07     0.40542565E-08
               4       0.19497911E-14     0.88817842E-15
================================================================================
============ Calculation of NGWF S^-1 using Hotelling algorithm ================ 
         Iteration  |  Frobenius norm and Maximum abs value    (of I-S*S_n^-1)   
               1       0.13327310E-03     0.38621243E-04
               2       0.92975107E-08     0.35420229E-08
               3       0.14666194E-14     0.55511151E-15
================================================================================
RMS gradient                =       0.00019059621871
Trial step length           =               0.504564
Gradient along search dir.  =         -0.00232826847
Functional at step 0        =     -39.14387239945481
Functional at step 1        =     -39.14446440381469
Functional predicted        =     -39.14446444051575
Selected quadratic step     =               0.508568
Conjugate gradients coeff.  =               0.335627
--------------------------- NGWF line search finished --------------------------
                                               

################################################################################
########################### NGWF CG iteration  007 #############################
################################################################################
****** Reciprocal space K.E. preconditioning with k_zero =  3.0000 a0^-1 *******
   Initial electron number for spin 1:      20.00768870
     Final electron number for spin 1:      20.00000000

=================== Penalty functional idempotency correction ==================
 RMS occupancy error at iteration   1:  0.000686 (step -0.4991 Ne1=     20.0000)
 RMS occupancy error at iteration   2:  0.000002 (step -0.5000 Ne1=     20.0000)
            Final RMS occupancy error   :  0.000000 (Ne1=     20.0000)
               Final occupancy bounds   : [  0.0000,  1.0000]
================================================================================

................................................................................
<<<<<<<<<< LNV (Millam-Scuseria variant) density kernel optimisation >>>>>>>>>>>
~~~~~~~~~~~~~~~~~~~~~~~~~~~~~~~~~~~~~~~~~~~~~~~~~~~~~~~~~~~~~~~~~~~~~~~~~~~~~~~~
iter|       energy      |  rms DeltaK |  commutator |LScoef|CGcoef|      Ne    |
      ideal mu1:      -0.000000000012
-mu(2tr(KS)-Ne):       0.000000000000
             Q0:     -39.144486396569
DltNe tr(Dir*S):       0.000000000000
             G0:      -0.000090401104
   RMS gradient:       0.000594246844
-mu(2tr(KS)-Ne):       0.000000000000
     Trial step:       0.655273594718
             Q1:     -39.144506224661
 Quadratic coef:       0.000039409364
 Linear coef   :      -0.000059237456
           Qmin:     -39.144508656991
Quadratic minimum step length (  0.492481186730) accepted
 1    -39.14448639656941 0.00000000000 0.00102689467 0.4925  0.000   20.00000000
      ideal mu1:       0.000000000000
-mu(2tr(KS)-Ne):       0.000000000000
             Q0:     -39.144508650509
DltNe tr(Dir*S):       0.000000000000
             G0:      -0.000027212050
   RMS gradient:       0.000326006633
-mu(2tr(KS)-Ne):       0.000000000000
     Trial step:       0.568075626620
             Q1:     -39.144520823225
 Quadratic coef:       0.000003285786
 Linear coef   :      -0.000015458502
           Qmin:     -39.144526832252
Quadratic minimum step length (  1.336300831040) accepted
 2    -39.14450865050925 0.00039773105 0.00060086683 1.3363  0.301   20.00000000
      ideal mu1:       0.000000000000
 3    -39.14452681274491 0.00059985945 0.00065352231 0.0000  0.000   20.00000000
Finished density kernel iterations (   3)

           ........................................................
           | *** NGWF optimisation not converged ***              |
           | RMS NGWF gradient =    0.00008839648342              |
           | Criteria not satisfied:                              |
           | -> RMS NGWF gradient higher than set threshold.      |
           ========================================================

------------------------------- NGWF line search -------------------------------
============ Calculation of NGWF S^-1 using Hotelling algorithm ================ 
         Iteration  |  Frobenius norm and Maximum abs value    (of I-S*S_n^-1)   
               1       0.74509540E-02     0.24913189E-02
               2       0.23904253E-04     0.10650698E-04
               3       0.29840018E-09     0.13400547E-09
               4       0.15764764E-14     0.58286709E-15
================================================================================
============ Calculation of NGWF S^-1 using Hotelling algorithm ================ 
         Iteration  |  Frobenius norm and Maximum abs value    (of I-S*S_n^-1)   
               1       0.36418352E-02     0.12114211E-02
               2       0.57894044E-05     0.25763793E-05
               3       0.18038980E-10     0.80424556E-11
               4       0.14937512E-14     0.63664352E-15
================================================================================
RMS gradient                =       0.00008839648342
Trial step length           =               0.506562
Gradient along search dir.  =         -0.00046333528
Functional at step 0        =     -39.14452681274491
Functional at step 1        =     -39.14453451295402
Functional predicted        =     -39.14458748006778
Selected quadratic step     =               0.261872
Conjugate gradients coeff.  =               0.000000
--------------------------- NGWF line search finished --------------------------
                                               

################################################################################
########################### NGWF CG iteration  008 #############################
################################################################################
****** Reciprocal space K.E. preconditioning with k_zero =  3.0000 a0^-1 *******
   Initial electron number for spin 1:      20.00127467
     Final electron number for spin 1:      20.00000000

=================== Penalty functional idempotency correction ==================
 RMS occupancy error at iteration   1:  0.000164 (step -0.4997 Ne1=     20.0000)
            Final RMS occupancy error   :  0.000000 (Ne1=     20.0000)
               Final occupancy bounds   : [  0.0000,  1.0000]
================================================================================

................................................................................
<<<<<<<<<< LNV (Millam-Scuseria variant) density kernel optimisation >>>>>>>>>>>
~~~~~~~~~~~~~~~~~~~~~~~~~~~~~~~~~~~~~~~~~~~~~~~~~~~~~~~~~~~~~~~~~~~~~~~~~~~~~~~~
iter|       energy      |  rms DeltaK |  commutator |LScoef|CGcoef|      Ne    |
      ideal mu1:      -0.000000055704
-mu(2tr(KS)-Ne):       0.000000000000
             Q0:     -39.144588690105
DltNe tr(Dir*S):       0.000000000000
             G0:      -0.000026683205
   RMS gradient:       0.000322848681
-mu(2tr(KS)-Ne):       0.000000000000
     Trial step:       0.871274888853
             Q1:     -39.144592605403
 Quadratic coef:       0.000019333109
 Linear coef   :      -0.000023248407
           Qmin:     -39.144595679260
Quadratic minimum step length (  0.523861753932) accepted
 1    -39.14458869010509 0.00000000000 0.00055688160 0.5239  0.000   20.00000000
      ideal mu1:       0.000000000000
-mu(2tr(KS)-Ne):       0.000000000000
             Q0:     -39.144595678744
DltNe tr(Dir*S):       0.000000000000
             G0:      -0.000014090255
   RMS gradient:       0.000234607931
-mu(2tr(KS)-Ne):       0.000000000000
     Trial step:       0.675594250591
             Q1:     -39.144603545927
 Quadratic coef:       0.000001652112
 Linear coef   :      -0.000009519295
           Qmin:     -39.144609391036
Quadratic minimum step length (  1.946351138850) accepted
 2    -39.14459567874402 0.00022369199 0.00044194435 1.9464  0.528   20.00000000
      ideal mu1:       0.000000000000
 3    -39.14460960718705 0.00061230922 0.00049682646 0.0000  0.000   20.00000000
Finished density kernel iterations (   3)

           ........................................................
           | *** NGWF optimisation not converged ***              |
           | RMS NGWF gradient =    0.00002468843400              |
           | Criteria not satisfied:                              |
           | -> RMS NGWF gradient higher than set threshold.      |
           ========================================================

------------------------------- NGWF line search -------------------------------
============ Calculation of NGWF S^-1 using Hotelling algorithm ================ 
         Iteration  |  Frobenius norm and Maximum abs value    (of I-S*S_n^-1)   
               1       0.52677274E-02     0.17070765E-02
               2       0.11640973E-04     0.48448761E-05
               3       0.66749055E-10     0.27847613E-10
               4       0.15069966E-14     0.55511151E-15
================================================================================
============ Calculation of NGWF S^-1 using Hotelling algorithm ================ 
         Iteration  |  Frobenius norm and Maximum abs value    (of I-S*S_n^-1)   
               1       0.38637562E-02     0.12506045E-02
               2       0.62836048E-05     0.26153900E-05
               3       0.19621141E-10     0.81825657E-11
               4       0.15631668E-14     0.66613381E-15
================================================================================
RMS gradient                =       0.00002468843400
Trial step length           =               0.364218
Gradient along search dir.  =         -0.00003475989
Functional at step 0        =     -39.14460960718705
Functional at step 1        =     -39.14459878678905
Functional predicted        =     -39.14461131370176
Selected quadratic step     =               0.098189
Conjugate gradients coeff.  =               0.078004
--------------------------- NGWF line search finished --------------------------
                                               

################################################################################
########################### NGWF CG iteration  009 #############################
################################################################################
****** Reciprocal space K.E. preconditioning with k_zero =  3.0000 a0^-1 *******
   Initial electron number for spin 1:      20.00037401
     Final electron number for spin 1:      20.00000000

=================== Penalty functional idempotency correction ==================
 RMS occupancy error at iteration   1:  0.000064 (step -0.4999 Ne1=     20.0000)
            Final RMS occupancy error   :  0.000000 (Ne1=     20.0000)
               Final occupancy bounds   : [  0.0000,  1.0000]
================================================================================

................................................................................
<<<<<<<<<< LNV (Millam-Scuseria variant) density kernel optimisation >>>>>>>>>>>
~~~~~~~~~~~~~~~~~~~~~~~~~~~~~~~~~~~~~~~~~~~~~~~~~~~~~~~~~~~~~~~~~~~~~~~~~~~~~~~~
iter|       energy      |  rms DeltaK |  commutator |LScoef|CGcoef|      Ne    |
      ideal mu1:      -0.000000008799
-mu(2tr(KS)-Ne):       0.000000000000
             Q0:     -39.144611493949
DltNe tr(Dir*S):       0.000000000000
             G0:      -0.000026522524
   RMS gradient:       0.000321875147
-mu(2tr(KS)-Ne):       0.000000000000
     Trial step:       1.146709919308
             Q1:     -39.144610062540
 Quadratic coef:       0.000031845051
 Linear coef   :      -0.000030413642
           Qmin:     -39.144618755593
Quadratic minimum step length (  0.547583109434) accepted
 1    -39.14461149394948 0.00000000000 0.00050481295 0.5476  0.000   20.00000000
      ideal mu1:       0.000000000000
-mu(2tr(KS)-Ne):       0.000000000000
             Q0:     -39.144618549828
DltNe tr(Dir*S):       0.000000000000
             G0:      -0.000004839132
   RMS gradient:       0.000136947798
-mu(2tr(KS)-Ne):       0.000000000000
     Trial step:       0.792413391629
             Q1:     -39.144620394593
 Quadratic coef:       0.000001989828
 Linear coef   :      -0.000003834593
           Qmin:     -39.144620397237
Quadratic minimum step length (  0.763528904073) accepted
 2    -39.14461854982798 0.00026246968 0.00025113822 0.7635  0.181   20.00000000
      ideal mu1:       0.000000000000
 3    -39.14462039726320 0.00014107602 0.00023463045 0.0000  0.000   20.00000000
Finished density kernel iterations (   3)

           ........................................................
           | *** NGWF optimisation not converged ***              |
           | RMS NGWF gradient =    0.00001554696199              |
           | Criteria not satisfied:                              |
           | -> RMS NGWF gradient higher than set threshold.      |
           ========================================================

------------------------------- NGWF line search -------------------------------
============ Calculation of NGWF S^-1 using Hotelling algorithm ================ 
         Iteration  |  Frobenius norm and Maximum abs value    (of I-S*S_n^-1)   
               1       0.35947564E-02     0.12070110E-02
               2       0.55301710E-05     0.23661042E-05
               3       0.15100705E-10     0.65351058E-11
               4       0.14467948E-14     0.56898930E-15
================================================================================
============ Calculation of NGWF S^-1 using Hotelling algorithm ================ 
         Iteration  |  Frobenius norm and Maximum abs value    (of I-S*S_n^-1)   
               1       0.29506080E-02     0.99014215E-03
               2       0.37307305E-05     0.15963850E-05
               3       0.68961038E-11     0.29840574E-11
               4       0.13203677E-14     0.44408921E-15
================================================================================
RMS gradient                =       0.00001554696199
Trial step length           =               0.189109
Gradient along search dir.  =         -0.00001690642
Functional at step 0        =     -39.14462039726320
Functional at step 1        =     -39.14461473918921
Functional predicted        =     -39.14462068584339
Selected quadratic step     =               0.034139
Conjugate gradients coeff.  =               0.396556
--------------------------- NGWF line search finished --------------------------
                                               

################################################################################
########################### NGWF CG iteration  010 #############################
################################################################################
****** Reciprocal space K.E. preconditioning with k_zero =  3.0000 a0^-1 *******
   Initial electron number for spin 1:      20.00020577
     Final electron number for spin 1:      20.00000000

=================== Penalty functional idempotency correction ==================
 RMS occupancy error at iteration   1:  0.000029 (step -0.4999 Ne1=     20.0000)
            Final RMS occupancy error   :  0.000000 (Ne1=     20.0000)
               Final occupancy bounds   : [  0.0000,  1.0000]
================================================================================

................................................................................
<<<<<<<<<< LNV (Millam-Scuseria variant) density kernel optimisation >>>>>>>>>>>
~~~~~~~~~~~~~~~~~~~~~~~~~~~~~~~~~~~~~~~~~~~~~~~~~~~~~~~~~~~~~~~~~~~~~~~~~~~~~~~~
iter|       energy      |  rms DeltaK |  commutator |LScoef|CGcoef|      Ne    |
      ideal mu1:      -0.000000001820
-mu(2tr(KS)-Ne):       0.000000000000
             Q0:     -39.144620724020
DltNe tr(Dir*S):       0.000000000000
             G0:      -0.000004741037
   RMS gradient:       0.000136087019
-mu(2tr(KS)-Ne):       0.000000000000
     Trial step:       0.777837083510
             Q1:     -39.144621833696
 Quadratic coef:       0.000002578078
 Linear coef   :      -0.000003687755
           Qmin:     -39.144622042786
Quadratic minimum step length (  0.556319813752) accepted
 1    -39.14462072401952 0.00000000000 0.00023918062 0.5563  0.000   20.00000000
      ideal mu1:       0.000000000000
-mu(2tr(KS)-Ne):       0.000000000000
             Q0:     -39.144622042733
DltNe tr(Dir*S):       0.000000000000
             G0:      -0.000002952632
   RMS gradient:       0.000107394576
-mu(2tr(KS)-Ne):       0.000000000000
     Trial step:       0.657819261977
             Q1:     -39.144623665692
 Quadratic coef:       0.000000319339
 Linear coef   :      -0.000001942298
           Qmin:     -39.144624996117
Quadratic minimum step length (  2.000509565490) accepted
 2    -39.14462204273256 0.00009915875 0.00020095458 2.0005  0.623   20.00000000
      ideal mu1:       0.000000000000
 3    -39.14462525236418 0.00029548984 0.00021642391 0.0000  0.000   20.00000000
Finished density kernel iterations (   3)

           ........................................................
           | *** NGWF optimisation converged ***                  |
           | RMS NGWF gradient =    0.00000150765002              |
           | Criteria satisfied:                                  |
           | -> RMS NGWF gradient lower than set threshold.       |
           ========================================================

================================================================================
           ---------------- ENERGY COMPONENTS (Eh) ----------------
           | Kinetic                    :       25.05018549987835 |
           | Pseudopotential (local)    :     -141.26446338271930 |
           | Pseudopotential (non-local):        5.50057680546928 |
           | Hartree                    :       56.70240864566340 |
           | Exchange-correlation       :       -9.36771127469347 |
           | Ewald                      :       24.23437845403755 |
           | Total                      :      -39.14462525236419 |
           --------------------------------------------------------
           ------ LOCAL ENERGY COMPONENTS FROM MATRIX TRACES ------
           | Pseudopotential (local)    :     -141.26446338271759 |
           | Hartree                    :       56.70240864566264 |
           --------------------------------------------------------
           Integrated density           :       19.99999999999992
           Integrated density tr(KS)    :       20.00000000000001
================================================================================


                    <<<<< CALCULATION SUMMARY >>>>>
|ITER|    RMS GRADIENT   |     TOTAL ENERGY    |   step   |     Epredicted      
   1     0.00858280540435    -38.21345919413779   0.340422    -38.95694405459530
   2     0.00221973884939    -39.03852981791558   0.501899    -39.11190747372082
   3     0.00108281817243    -39.11673436609490   0.498403    -39.13473991327233
   4     0.00053806304089    -39.13620652921168   0.571660    -39.14151460967739
   5     0.00032899239522    -39.14189170592758   0.532766    -39.14372524878172
   6     0.00019059621871    -39.14387239945481   0.508568    -39.14446444051575
   7     0.00008839648342    -39.14452681274491   0.261872    -39.14458748006778
   8     0.00002468843400    -39.14460960718705   0.098189    -39.14461131370176
   9     0.00001554696199    -39.14462039726320   0.034139    -39.14462068584339
  10     0.00000150765002    -39.14462525236418  <-- CG                         
 
<QC>        [NGWF iterations]:       10
<QC>           [total_energy]:      -39.14462525
<QC>                     [F0]:      -39.14462040
<QC>                     [F1]:      -39.14461474
<QC>                     [F2]:        0.00000000
<QC>   [predicted_functional]:      -39.14462069
<QC>           [rms_gradient]:        0.000001507650
<QC>                 [G_init]:       -0.000016906424
<QC>        [quadratic_coeff]:        0.034139
<QC>            [cubic_coeff]:        0.000000
<QC>               [cg_coeff]:        0.396556
<QC>           [trial_length]:        0.189109

------------------------------ TIMING INFORMATION ------------------------------
TOTAL TIME:     130.370s on     4 node(s)

Job completed: 27-05-2011 23:20 (+0100)

