 +---------------------------------------------------------------+
 |                                                               |
 |        ####### #     # ####### ####### ####### ######         |
 |        #     # ##    # #          #    #       #     #        |
 |        #     # # #   # #          #    #       #     #        |
 |        #     # #  #  # #####      #    #####   ######         |
 |        #     # #   # # #          #    #       #              |
 |        #     # #    ## #          #    #       #              |
 |        ####### #     # #######    #    ####### #              |
 |                                                               |
 |        Linear-Scaling Ab Initio Total Energy Program          |
 |                                                               |
 |          Release for academic collaborators of ODG            |
 |                                              Version 3.0 RC1  |
 |                                                               |
 +---------------------------------------------------------------+
 |                                                               |
 |  Authors:                                                     |
 |  Peter D. Haynes, Nicholas D. M. Hine, Arash. A. Mostofi,     |
 |  Mike C. Payne and Chris-Kriton Skylaris                      |
 |                                                               |
 |  Contributors:                                                |
 |  P. W. Avraam, S. J. Clark, O. Dieguez, S. M. M. Dubois,      |
 |  J. Dziedzic, H. H. Helal, Q. O. Hill, D. D. O`Regan,         |
 |  C. J. Pickard, M. I. J. Probert, L. Ratcliff, M. Robinson    |
 |  and A. Ruiz Serrano                                          |
 |                                                               |
 |                                   Copyright (c) 2004-2011     |
 |                                                               |
 |  Please cite:                                                 |
 |  "Introducing ONETEP: Linear-scaling density functional       |
 |   simulations on parallel computers".                         |
 |   C.-K. Skylaris, P. D. Haynes, A. A. Mostofi, M. C. Payne.   |
 |   J. Chem. Phys. 122 084119 (2005).                           |
 |                                                               |
 |          in all publications arising from your use of ONETEP. |
 |                                                               |
 +---------------------------------------------------------------+
 |                                                               |
 |   ONETEP is based on developments described in the following  |
 |   publications:                                               |
 |                                                               |
 |  "Nonorthogonal generalized Wannier function pseudopotential  |
 |   plane-wave method".                                         |
 |   C.-K. Skylaris, A. A. Mostofi, P. D. Haynes, O. Dieguez,    |
 |   M. C. Payne.                                                |
 |   Phys. Rev. B 66 035119 (2002).                              |
 |                                                               |
 |  "Preconditioned iterative minimization for linear-scaling    |
 |   electronic structure calculations".                         |
 |   A. A. Mostofi, P. D. Haynes, C.-K. Skylaris, M. C. Payne.   |
 |   J. Chem. Phys. 119(17), pp.8842-8848 (2003).                |
 |                                                               |
 |  "Total-energy calculations on a real space grid with         |
 |   localized functions and a plane-wave basis".                |
 |   A. A. Mostofi, C.-K. Skylaris, P. D. Haynes, M. C. Payne.   |
 |   Comput. Phys. Commun. 147, pp.788-802 (2002).               |
 |                                                               |
 |  "Accurate kinetic energy evaluation in electronic structure  |
 |   calculations with localized functions on real space grids"  |
 |   C.-K. Skylaris, A. A. Mostofi, P. D. Haynes, C. J. Pickard, |
 |   M. C. Payne.                                                |
 |   Comput. Phys. Commun. 140, pp.315-322 (2001).               |
 |                                                               |
 +---------------------------------------------------------------+

Job started: 27-06-2011 15:23 (+0100)

Running on     4 processors.

Reading parameters from file "openbc_multigrid.dat" ...... done
Reading geometry and species blocks from file "openbc_multigrid.dat" ...
  <species_atomic_set> block not found: NGWF initialisation set to AUTO
    
... done
-------------------------------------------------------------------------------
---------------------------- RUN-TIME PARAMETERS ------------------------------
-------------------------------------------------------------------------------
task                      : SINGLEPOINT *! Type of calculation (String)         
cutoffenergy              : 22.0493965347193      hartree *! Plane wave kinetic 
kernelcutoff              : 1000.00000000000 *! Density kernel radius in Bohr ( 
xcfunctional              : PBE *! Exchange-correlation functional (String)     
libxcxfuncid              : 0 *! Functional identifier for which exchange funct 
libxccfuncid              : 0 *! Functional identifier for which correlation fu 
charge                    : 1.00000000000000 *! The total charge of the system  
spin                      : 0 *! Total spin of system (Integer)                 
spinpolarized             : F *! Switch for spin polarization (Boolean)         
spinpolarised             : F *! Switch for spin polarisation (Boolean)         
constantefield            : 0.0 0.0 0.0 *! Cartesian coordinates of constant el 
fftboxpref                : 0 0 0 *! Preferred FFT box dimensions (String)      
ppdnpoints                : 0 0 0 *! PPD edge length in grid points for each la 
psincspacing              : 0.0 0.0 0.0 *! PSINC grid spacing in atomic units ( 
oldinput                  : F *! Read old-format input file (Boolean)           
develcode                 : *! For development code only (String)               
nnho                      : F *! Initialise NGWFs to nonorthogonal natural hybr 
ngwfhalo                  : -1.00000000000000 *! Halo extension to NGWF radii ( 
nonscforces               : F *! Include non self-consistent forces due to NGWF 
maxitpalsermano           : 50 *! Maximum number of iterations for Palser-Manol 
maxitpen                  : 3 *! Max number of penalty functional iterations (I 
penparam                  : 4.00000000000000 *! Penalty functional parameter (D 
minitlnv                  : 3 *! Min number of LNV iterations (Integer)         
maxitlnv                  : 8 *! Max number of LNV iterations (Integer)         
maxitlnvcoarse            : 0 *! Max number of low-accuracy LNV iterations (Int 
lnvthresholdorig          : 1.000000000000000E-009 *! LNV convergence threshold 
lnvcgtype                 : LNV_FLETCHER *! Type of CG coefficient for LNV dens 
lnvcgmaxstep              : 3.00000000000000 *! Maximum length of trial step fo 
exactlnv                  : T *! Use original LNV algorithm (Boolean)           
oldlnv                    : F *! Use LNV algorithm backwards compatible pre Dec 
lnvchecktrialsteps        : F *! Check stability of kernel at each trial step d 
kerfix                    : 1 *! Density kernel fixing approach (Integer)       
maxitkernelfix            : 3 *! Maximum # iterations of Penalty Functional ide 
initialdensrealspace      : F *! Construct initial density in real space from a 
kerneldiis                : F *! Use kernel DIIS in the inner loop (Boolean)    
kerneldiistype            : P *! Density mixing method (String)                 
kerneldiismax             : 10 *! Max number of kernels saved during kernel DII 
kerneldiismaxit           : 25 *! Max number of kernel DIIS iterations (Integer 
kerneldiisthres           : 1.000000000000000E-009 *! Density mixing convergenc 
kerneldiisliter           : 5 *! Number of linear mixing iterations (Integer)   
kerneldiiscin             : 0.900000000000000 *! Coefficient for the input kern 
kerneldiiscriteria        : 1000 *! Density mixing convergence criteria (String 
maxitngwfcg               : 3 *! Max number of NGWF conjugate gradients (CG) it 
ngwfcgtype                : NGWF_FLETCHER *! Type of CG coefficient for NGWF op 
ngwfcgmaxstep             : -8.00000000000000 *! Maximum length of trial step f 
eleccgmax                 : 0 *! Number of NGWF iterations to reset CG (Integer 
precondscheme             : TETER *! Recip-space preconditioning scheme (String 
kzero                     : 3.00000000000000 *! KE preconditioning parameter (D 
rprecond                  : 2.00000000000000 *! Radial cut-off for real-space p 
precondrecip              : T *! Recip-space KE preconditioning (Boolean)       
precondreal               : F *! Real-space KE preconditioning (Boolean)        
smoothscheme              : NONE *! Smoothing scheme for the NGWF gradients at  
rsmooth                   : 1.50000000000000      bohr *! Radius of the unshave 
ksmooth                   : 5.00000000000000 *! Characteristic wavelength of th 
occmix                    : 1.00000000000000 *! Mix fraction of occupancy preco 
kernelupdate              : F *! Update density kernel during NGWF line search  
kernelchristoffelupdate   : F *! Update density kernel during NGWF line search  
maxithotelling            : 50 *! Number of Hotelling iteration per NGWF change 
maxresidhotelling         : 1.000000000000000E-012 *! Max allowed value in Hote 
maxitngwfdiis             : 0 *! Max number of NGWF DIIS steps (Integer)        
ngwfdiissize              : 4 *! Max size of the DIIS iterative subspace (Integ 
ngwfdiisreset             : 8 *! Max number of iteration for the resetting of D 
ngwfdiismaxstep           : 2.00000000000000 *! Max length of trial step for NG 
ngwfthresholdorig         : 2.000000000000000E-006 *! NGWF convergence threshol 
elecenergytol             : -1.000000000000000E-003 hartree *! Tolerance on tot 
elecforcetol              : -1.000000000000000E-003 ha/bohr *! Tolerance on max 
ngwfmaxgrad               : -2.000000000000000E-005 *! Maximum permissible valu 
deltaeconv                : T *! Use consecutive energy gains as a criterion fo 
locpotintbatchsize        : 10 *! Size of NGWF in fftbox batch for locpot integ 
kineticintbatchsize       : 10 *! Size of NGWF in fftbox batch for kinetic inte 
densitybatchsize          : 10 *! Size of NGWF in fftbox batch for charge densi 
ngwfgradbatchsize         : 10 *! Size of NGWF in fftbox batch for NGWF gradien 
densethreshold            : 0.400000000000000 *! Threshold for matrix segment f 
commsgroupsize            : 4 *! Number of nodes in a group (determines comms e 
ovlpfornonlocal           : F *! Overlap sparsity for nonlocal (Boolean)        
usespacefillingcurve      : T *! Re-arrange atoms according to space-filling cu 
corehamdenskernguess      : T *! Initial guess for density kernel from core Ham 
checkatoms                : T *! Check atoms on top of each other (Boolean)     
locpotscheme              : FULL *! Scheme for evaluating local potential matri 
smoothprojectors          : -0.400000000000000 *! Halfwidth of Gaussian filter  
smoothlocpspot            : -0.400000000000000 *! Halfwidth of Gaussian filter  
oddpsincgrid              : F *! Force odd number of points in simcell psinc gr 
evenpsincgrid             : F *! Force even number of points in simcell psinc g 
realspaceprojectors       : F *! Whether to evaluate and store projectors in re 
outputdetail              : VERBOSE *! Level of output detail (String)          
pawoutputdetail           : DEFAULT *! Level of output detail for PAW: BRIEF, N 
timingslevel              : 0 *! Level of timings output: 0(none) 1(nodes summa 
writeparams               : T *! Output runtime parameters at startup (Boolean) 
writeforces               : F *! Write ionic forces (Boolean)                   
writepositions            : T *! Write ionic positions each geometry or MD step 
writexyz                  : F *! Output coordinates in .xyz file (Boolean)      
printqc                   : T *! Print Quality Control information (Boolean)    
cubeformat                : F *! Allow .cube format for plot outputs (Boolean)  
dxformat                  : F *! Allow .dx format for plot outputs (Boolean)    
dxformatcoarse            : F *! Output only points on the coarse grid (Boolean 
dxformatdigits            : 7 *! Number of significant digits in .dx output (In 
grdformat                 : T *! Allow .grd format for plot outputs (Boolean)   
writedensityplot          : T *! Write the charge density in plotting format (B 
writengwfplot             : F *! Write NGWFs in plotting format (Boolean)       
writengwfgradplot         : F *! Write NGWF Gradients in plotting format (Boole 
writengwfradial           : 0 *! Write NGWFs radial distributions (Integer)     
writengwfgradradial       : 0 *! Write NGWFs gradients radial distributions (In 
writeradialstep           : 5.000000000000000E-003 bohr *! Define the grid step 
writeradialsmear          : 1.000000000000000E-002 bohr *! Define the gaussian  
readdenskern              : F *! Read density kernel restart information (Boole 
writedenskern             : F *! Write density kernel restart information (Bool 
readtightboxngwfs         : F *! Read in universal tightbox NGWFs restart infor 
writetightboxngwfs        : F *! Write in universal tightbox NGWFs restart info 
writeconvergeddkngwfs     : F *! Only write Density Kernel and NGWFs upon conve 
readswngwfs               : F *! Read NGWFs restart information in spherical wa 
writeswngwfs              : F *! Write NGWFs restart information in spherical w 
writemaxl                 : 3 *! Maximum angular momentum number when writing i 
readmaxl                  : 3 *! Maximum angular momentum number when reading i 
extransw                  : 0 *! Maximum number of zeros of the sph Bessel func 
paw                       : F *! Uses a PAW construction to find correct core d 
finegridscale             : 2.00000000000000 *! Ratio of size of fine grid to s 
dblgridscale              : 2.00000000000000 *! Ratio of charge density / poten 
augfuncsrecip             : T *! Construct Augmentation functions in recip spac 
dispersion                : 0 *! Select dispersion correction (Integer)         
vdwdcoeff                 : -1.00000000000000 *! Replacement VDW damping coeffi 
hubbardmaxiter            : 0 *! Maximum number of DFT+U projector optimisation 
hubbardenergytol          : 1.000000000000000E-008 hartree *! Energy tolerance  
hubbardconvwin            : 2 *! Energy convergence window when using DFT+U pro 
hubbardprojmixing         : 0.000000000000000E+000 *! Proportion of old Hubbard 
hubbardfunctional         : 1 *! DFT+U energy functional to use (Integer)       
hubbardtensorcorr         : 1 *! DFT+U projector tensorial correction to use (I 
hubbardngwfspinthreshold  : 2.000000000000000E-005 *! NGWF RMS  gradient thresh 
coulombcutoffradius       : 0.000000000000000E+000 *! Radius of sphere or cylin 
coulombcutofflength       : 0.000000000000000E+000 *! Length of cylinder or wid 
coulombcutofftype         : NONE *! Type of cutoff coulomb interaction: NONE, S 
coulombcutoffwriteint     : F *! Write real-space cutoff Coulomb interaction sc 
pbccorrectioncutoff       : 0.000000000000000E+000 *! alpha*L cutoff parameter  
doproperties              : F *! Allow calculation of properties (Boolean)      
numeigenvalues            : 10 *! Number of energy and occupancy eigenvalues to 
homodensplot              : -1 *! Number of squared MOs to plot from HOMO and l 
lumodensplot              : -1 *! Number of squared MOs to plot from LUMO and h 
homoplot                  : 5 *! Number of MOs to plot from HOMO and lower (Int 
lumoplot                  : 5 *! Number of MOs to plot from LUMO and higher (In 
dossmear                  : 3.674932438755288E-003 hartree *! Half width of sme 
ldossmear                 : 3.674932438755288E-003 hartree *! Lorentzian broade 
popncalculate             : F *! Allow population analysis (Boolean)            
popnbondcutoff            : 5.66917840375065      bohr *! Bond length cutoff fo 
ngwfanalysis              : F *! Perform NGWF analysis (Boolean)                
polarisationcalculate     : F *! Allow calculation of polarisation (Boolean)    
spreadcalculate           : F *! Calculate spread of NGWFs (Boolean)            
geommodulusest            : 1.700000000000000E-002 ha/bohr**3 *! The estimated  
geomfrequencyest          : 7.600000000000000E-003 hartree *! The estimated ave 
geomenergytol             : 1.000000000000000E-006 hartree *! Geometry optimiza 
geomforcetol              : 2.000000000000000E-003 ha/bohr *! Geometry optimiza 
geomdisptol               : 5.000000000000000E-003 bohr *! Geometry optimizatio 
geommaxiter               : 50 *! Maximum number of geometry optimization itera 
geomconvergencewin        : 2 *! Geometry optimization convergence tolerance wi 
geomcontinuation          : F *! Read information for continuation of a previou 
geombackupiter            : 1 *! Number of geometry optimisation iterations bet 
geomresetdkngwfsiter      : 6 *! Number of geom iterations between resets of ke 
geomreusedkngwfs          : T *! Re-use density kernel and NGWFs during geometr 
geomprintinvhessian       : F *! Write inverse Hessian to standard output (Bool 
geommethod                : CARTESIAN *! Method for geometry optimization (Stri 
tssearchmethod            : LSTQST *! Specifies method to be used for TS search 
tssearchlstqstprotocol    : LSTMAXIMUM *! Specifies LSTQST protocol (String)    
tssearchqstmaxiter        : 5 *! Specifies maximum number of QST steps (Integer 
tssearchcgmaxiter         : 20 *! Specifies maximum number of CG steps (Integer 
tssearchforcetol          : 5.000000000000000E-003 ha/bohr *! Force tolerance f 
tssearchdisptol           : 1.000000000000000E-002 bohr *! Displacement toleran 
mddeltat                  : 40.0000000000000      aut *! Molecular dynamics tim 
mdnumiter                 : 100 *! Maximum number of molecular dynamics iterati 
mdtemperature             : 9.500000000000000E-004 hartree *! Temperature for m 
mdalgorithm               : LEAPFROGVERLET *! Integration algorithm for molecul 
mdthermostat              : NONE *! Thermostat for molecular dynamics (String)  
mdcollisionfrequency      : 0.152000000000000      hartree *! Collision frequen 
mixdenskern               : 0 *! Number of coefficients used to build new guess 
mixngwfs                  : 0 *! Number of coefficients used to build new guess 
condreaddenskern          : F *! Read in conduction density kernel (Boolean)    
condreadtightboxngwfs     : F *! Read in universal tightbox conduction NGWFs (B 
condfixedshift            : F *! Fixed projected conduction Hamiltonian shift ( 
condcalcmaxeigen          : T *! Calculate maximum conduction Hamiltonian eigen 
condnumstates             : 0 *! Number of conduction states to be optimised fo 
condkernelcutoff          : 1000.00000000000 *! Conduction density kernel radiu 
condinitshift             : 0.000000000000000E+000 *! Initial shifting factor f 
condshiftbuffer           : 0.100000000000000 *! Additional buffer for updating 
condnumextrastates        : 0 *! Number of extra conduction states for initial  
condnumextraits           : 0 *! Number of NGWF iterations with extra conductio 
condplotjointorbitals     : T *! Plot orbitals in the joint basis following a c 
condplotvcorbitals        : T *! Plot orbitals in the val and cond NGWF basis s 
condcalcopticalspectra    : F *! Calculate matrix elements for optical absorpti 
condspeccalcmommatels     : T *! Calculate momentum matrix elements (default tr 
condspeccalcnonloccomm    : T *! Calculate nonlocal commutator for momentum mat 
condspeccontderiv         : T *! Calculate non-local commuator using continuous 
condspecnonloccommshift   : 1.000000000000000E-004 *! Finite difference shift f 
bskpointpathspacing       : 0.188972700000000      1/bohr *! K-point spacing al 
bsnumeigenvalues          : -1 *! Num of energy and occ. eigenvalues to print b 
bsunfold                  : 0 0 0 *! Number of times to unfold Brillouin zone i 
bsmethod                  : TB *! Method to use: 'KP' or 'TB' (String)          
dotddft                   : F *! Allow Time-Dependent DFT calculation (Boolean) 
tddftmaximumenergy        : 1.00000000000000      hartree *! Desired maximum of 
tddftresolution           : 1.000000000000000E-003 hartree *! Desired resolutio 
tddftpropagationmethod    : CRANKNICHOLSON *! Method used to integrate von Neum 
tddftsparsitylevel        : 0 *! Matrix sparsity when computing propagators e.g 
tddfttammdancoff          : F *! Invoke Tamm-Dancoff decoupling approximation ( 
tddftdipolekickstrength   : 0.0 0.0 0.0 *! Maximum allowed phase shift in TDDFT 
tddftxcfunctional         : LDA *! Exchange-correlation functional for TDDFT (S 
tddfthamiltonianmixing    : 0 *! Order of polynomial extrapolation to H(t + hal 
tddftdamping              : 0.000000000000000E+000 hartree *! Energy smearing w 
tddftenforcedidempotency  : F *! Project out at each timestep that part of chan 
tddftmaxithotelling       : 50 *! Number of Hotelling iteration per propagation 
tddftmaxresidhotelling    : 1.000000000000000E-018 *! Max allowed value in Hote 
tddftinvoverlapexact      : T *! Renew inverse overlap with O N^3 algorithm bef 
isimplicitsolvent         : F *! Use implicit solvent? (Boolean)                
issmearedionrep           : F *! Implicit solvent: use smeared ions for electro 
isincludecavitation       : F *! Implicit solvent: include cavitation energy (B 
isdensitythreshold        : 7.800000000000000E-004 *! Implicit solvent: rho_0 p 
issolvationbeta           : 1.30000000000000 *! Implicit solvent: beta paramete 
isbulkpermittivity        : 1.00000000000000 *! Implicit solvent: eps_inf param 
ismultigriddefecterrortol : 1.000000000000000E-002 *! Implicit solvent: stop cr 
ismultigriderrortol       : 1.000000000000000E-005 *! Implicit solvent: stop cr 
issmearedionwidth         : 0.800000000000000 *! Implicit solvent: Width of Gau 
issurfacethickness        : 2.000000000000000E-004 *! Implicit solvent: thickne 
issolventsurfacetension   : 4.762400000000000E-005 ha/bohr**2 *! Implicit solve 
ismultigridmaxiters       : 100 *! Implicit solvent: max number of iterations i 
ismultigridnlevels        : 4 *! Implicit solvent: number of levels in multigri 
isdiscretizationorder     : 8 *! Implicit solvent: discretization order (2nd, 4 
isbccoarseness            : 5 *! Open BCs: controls boundary condition coarse-g 
isbcsurfacecoarseness     : 1 *! Open BCs: controls boundary condition coarse-g 
isbcthreshold             : 1.000000000000000E-009 *! Open BCs: controls bounda 
ischecksolvenergygrad     : F *! Implicit solvent: sanity check the energy grad 
issolvationmethod         : DIRECT *! Implicit solvent: direct or corrective me 
isdielectricmodel         : FIX_INITIAL *! Implicit solvent: how the cavity is  
isdielectricfunction      : FGF *! Implicit solvent: how the cavity is determin 
issolvationoutputdetail   : NONE *! Implicit solvent: controls extra output (St 
openbcionion              : T *! Force open BCs in ion-ion energy (Boolean)     
openbchartree             : T *! Force open BCs in Hartree potential (Boolean)  
openbcpspot               : T *! Force open BCs in local pseudopotential (Boole 
openbcpspotfinetunenptsx  : 100000 *! Open BCs in local pseudo, npts_x paramete 
openbcpspotfinetunealpha  : 0.300000000000000 *! Open BCs in local pseudo, alph 
openbcpspotfinetunef      : -1 *! Open BCs in local pseudo, fineness parameter  
%block positionsabs       : *! Cartesian positions for each atom (Block)        
C      17.85403817    21.92637647    22.14180411                                
H      19.39415683    21.87724385    23.50806889                                
H      16.38194929    23.16791998    22.87123454                                
C      16.73343649    19.30534017    21.73362542                                
H      15.11772919    19.46974548    20.46751560                                
H      16.10983016    18.56646116    23.55153236                                
C      18.62126293    17.45152863    20.58278829                                
H      17.69152258    15.65440857    20.20295534                                
H      20.18783761    17.15106376    21.88480271                                
N      19.58879759    18.57024059    18.15072361                                
H      18.04112007    18.89149234    17.08114427                                
C      20.80955423    21.09868080    18.44740904                                
H      21.39725595    21.81299350    16.60682551                                
H      22.45360728    20.94183436    19.67950397                                
C      18.87259517    22.88824199    19.62092277                                
H      19.76643091    24.71937694    19.92705678                                
H      17.29657191    23.10366963    18.31134948                                
C      21.24229922    16.76367195    16.78256911                                
H      22.75407214    16.18352909    18.05434808                                
H      22.04353887    17.67451514    15.11772919                                
H      20.14815357    15.11772919    16.20431597                                
%endblock positionsabs    : *! Cartesian positions for each atom (Block)        
%block latticecart        : *! The simulation cell lattice vectors (Block)      
48.000   0.000   0.000                                                          
0.000  48.000   0.000                                                           
0.000   0.000  48.000                                                           
%endblock latticecart     : *! The simulation cell lattice vectors (Block)      
%block species            : *! Species information (symbol, atomic number, numb 
C   C   6 4 7.0                                                                 
H   H   1 1 7.0                                                                 
N   N   7 4 7.0                                                                 
%endblock species         : *! Species information (symbol, atomic number, numb 
%block speciespot         : *! Pseudopotential name for each species (Block)    
C   "../../pseudo/carbon.recpot"                                                
H   "../../pseudo/hydrogen.recpot"                                              
N   "../../pseudo/nitrogen.recpot"                                              
%endblock speciespot      : *! Pseudopotential name for each species (Block)    
-------------------------------------------------------------------------------
-------------------------------------------------------------------------------

<<<<<<<<<<<<<<<<<<<<<<<<< Pseudopotential information >>>>>>>>>>>>>>>>>>>>>>>>>
File: ../../pseudo/carbon.recpot [ 2001 points up to Gmax=  52.9 (1/bohr)]
  Atomic number:  6;  ionic charge:  4.000000
    Shell 1: l = 0; rc = 1.48 bohr
File: ../../pseudo/hydrogen.recpot [ 2001 points up to Gmax=  52.9 (1/bohr)]
  Atomic number:  1;  ionic charge:  1.000000
    Local potential
File: ../../pseudo/nitrogen.recpot [ 2001 points up to Gmax=  52.9 (1/bohr)]
  Atomic number:  7;  ionic charge:  5.000000
    Shell 1: l = 0; rc = 1.48 bohr
<<<<<<<<<<<<<<<<<<<<<<<<<<<<<<<<<<<<<<< >>>>>>>>>>>>>>>>>>>>>>>>>>>>>>>>>>>>>>>

------------------------- Atom counting information ---------------------------
Symbol    Natoms    Nngwfs    Nprojs
  C          6        24         6
  H         14        14         0
  N          1         4         1
.......   ......    ......    ......
Totals:     21        42         7
-------------------------------------------------------------------------------
 
Determining parallel strategy ...
... using space-filling curve
... NGWF load balancing: max     12;  min      9;  average     11
... Projector load balancing: max      2;  min      1;  average      2
... done

Calculating direct Ion-Ion energy ...
Ion-Ion Energy        :       196.97519822751252
... FFT-box specified

Basis initialisation ...
... Atom positions lie inside simulation cell
... NGWF spheres initialised
... Projector spheres initialised
... NGWF tight boxes initialised
... NGWF basis size (local,global):      10092     45000
... Tight-boxes gathered
... done

============================== PSINC grid sizes ================================
                      Simulation cell:   84 x  84 x  84
                              FFT-box:   75 x  75 x  75
                                  PPD:    6 x   6 x   6
Grid space d1=  0.571428571429a0 (KE cutoff=  23.26377Eh = 633.03940eV)
Grid space d2=  0.571428571429a0 (KE cutoff=  23.26377Eh = 633.03940eV)
Grid space d3=  0.571428571429a0 (KE cutoff=  23.26377Eh = 633.03940eV)
================================================================================

********************** Fourier parallelisation information *********************
       Coarse grid (whole simulation cell) dimensions:     84    84    84

                 Real-space grid ('12' slabs):
                   Node    0:   21 (from    1 to   21)
                   Node    1:   21 (from   22 to   42)
                   Node    2:   21 (from   43 to   63)
                   Node    3:   21 (from   64 to   84)

                 Reciprocal-space grid ('23' slabs):
                   Node    0:   10 (from    1 to   10)
                   Node    1:   11 (from   11 to   21)
                   Node    2:   11 (from   22 to   32)
                   Node    3:   11 (from   33 to   43)
********************************************************************************

********************** Fourier parallelisation information *********************
       Double grid (whole simulation cell) dimensions:    168   168   168

                 Real-space grid ('12' slabs):
                   Node    0:   42 (from    1 to   42)
                   Node    1:   42 (from   43 to   84)
                   Node    2:   42 (from   85 to  126)
                   Node    3:   42 (from  127 to  168)

                 Reciprocal-space grid ('23' slabs):
                   Node    0:   21 (from    1 to   21)
                   Node    1:   21 (from   22 to   42)
                   Node    2:   22 (from   43 to   64)
                   Node    3:   21 (from   65 to   85)
********************************************************************************

=========================== Sparse matrix information ==========================
                        Overlap matrix filling: 100.00%
                        Density kernel filling: 100.00%
              NGWF-Proj overlap matrix filling:  96.94%
                    Hamiltonian matrix filling: 100.00%
                  NGWF diagonal matrix filling:   7.14%
                             KS matrix filling: 100.00% 
                           KSKS matrix filling: 100.00% 
================================================================================

Sparse matrix initialisation ... done
NGWF initialisation ...... done

============ Calculation of NGWF S^-1 using Hotelling algorithm ================ 
         Iteration  |  Frobenius norm and Maximum abs value    (of I-S*S_n^-1)   
               1       0.61244040E+01     0.97268058E+00
               2       0.58627375E+01     0.94869954E+00
               3       0.55099123E+01     0.90852310E+00
               4       0.51292686E+01     0.84905063E+00
               5       0.47950212E+01     0.78877128E+00
               6       0.45379187E+01     0.76525392E+00
               7       0.43300946E+01     0.74109482E+00
               8       0.40685743E+01     0.70375363E+00
               9       0.36266936E+01     0.63786384E+00
              10       0.29163690E+01     0.52656699E+00
              11       0.19577308E+01     0.36415449E+00
              12       0.96977100E+00     0.18222294E+00
              13       0.28275174E+00     0.50597472E-01
              14       0.30691408E-01     0.50856440E-02
              15       0.47145076E-03     0.74793315E-04
              16       0.13881444E-06     0.21468683E-07
              17       0.17246407E-13     0.29420910E-14
================================================================================
Calculating local pseudopotential in real space ...
Discrepancy between calculated realspace psloc and -Z/x on [5a0,83.138a0]:
max |rel. diff| # avg |rel. diff| #  avg rel. diff #  f # pseudopotential file
 0.000241156085    0.000015613324   0.000000405969   18  '../../pseudo/carbon.recpot'
 0.001409315133    0.000162129385   0.000001685238   18  '../../pseudo/hydrogen.recpot'
 0.000967426631    0.000104438395   0.000001612683   18  '../../pseudo/nitrogen.recpot'
... done

ONETEP fine grid is 168 x 168 x 168 gridpoints, 48.0000 x 48.0000 x 48.0000 bohr.
FD multigrid is     161 x 161 x 161 gridpoints, 46.0000 x 46.0000 x 46.0000 bohr.

MG boundary conditions: total CG'ed q: 41.9999708 over 3452 coarse points
MG Solving with 2nd order solver... done
MG Starting defect correction with a discretization order of: 8
MG Iteration ***   |error|   ***  |defect|  *** |error eq'n residual|  <-- D I
MG         1    0.8532170E-01   0.480701E-01       0.165740588E-05     <-- D I
MG         2    0.2232311E-03   0.254838E-02       0.225306813E-06     <-- D I
MG         3    0.7642682E-04   0.464936E-03       0.792294928E-07     <-- D I
MG         4    0.8000917E-05   0.203962E-03       0.120309631E-07     <-- D I
MG Defect correct solution obtained.
MG  - final defect norm:   0.2040E-03
MG  - final error norm :   0.8001E-05
MG  - defect iterations:   4
MG Hartree energy from (\int phi*rho dr):               195.057392
MG Hartree energy from (\int eps (grad phi)^2 dr):      162.153826
MG Discrepancy due to finite box and discretization:    -32.903566 ( -16.86866%)
MG Correction to account for finite box:                 33.303656
MG Remaining discrepancy, due to discretization:          0.400090 (   0.20511%)
Up spin density kernel initialisation ... 
======= Optimisation of K by Palser-Manolopoulos canonical purification ======== 
         Iteration  |  Band structure energy |    c_n   
               1         -14.14098877410365    0.4834799
               2         -15.13383548219253    0.4759209
               3         -16.23878295785065    0.4664519
               4         -17.23943665319469    0.4718246
               5         -18.00164930566247    0.5097659
               6         -18.48117687042789    0.5707434
               7         -18.66187092736217    0.5841193
               8         -18.74220584835988    0.5629467
               9         -18.78191813885945    0.5354731
              10         -18.79576013266959    0.5075289
              11         -18.79839256630541    0.5002738
              12         -18.79849667829839    0.5000004
              13         -18.79849683784765    0.4986381
              14         -18.79849683784804   -0.9116186
Final occupancy bounds: [    0.00000000000000:    1.00000000000000]
Closest occupancy to 0.5:     1.00000000000000
================================================================================
... done
   Initial electron number for spin 1:      42.00000000
     Final electron number for spin 1:      42.00000000
................................................................................
<<<<<<<<<<<<<<<< Penalty functional density kernel optimisation >>>>>>>>>>>>>>>>
~~~~~~~~~~~~~~~~~~~~~~~~~~~~~~~~~~~~~~~~~~~~~~~~~~~~~~~~~~~~~~~~~~~~~~~~~~~~~~~~
iter|       energy      |   rms grad  |  commutator |LScoef|CGcoef|      Ne    |
MG boundary conditions: total CG'ed q: 41.9999811 over 1918 coarse points
MG Solving with 2nd order solver... done
MG Starting defect correction with a discretization order of: 8
MG Iteration ***   |error|   ***  |defect|  *** |error eq'n residual|  <-- D I
MG         1    0.1237846E+00   0.281901E+00       0.490384987E-04     <-- D I
MG         2    0.1443862E-02   0.240639E-01       0.949608020E-06     <-- D I
MG         3    0.1794128E-03   0.456549E-02       0.212750385E-06     <-- D I
MG         4    0.3533385E-04   0.125396E-02       0.445167776E-06     <-- D I
MG         5    0.1013376E-04   0.468955E-03       0.137910599E-06     <-- D I
MG         6    0.3639417E-05   0.228132E-03       0.522195560E-07     <-- D I
MG Defect correct solution obtained.
MG  - final defect norm:   0.2281E-03
MG  - final error norm :   0.3639E-05
MG  - defect iterations:   6
MG Hartree energy from (\int phi*rho dr):               232.809246
MG Hartree energy from (\int eps (grad phi)^2 dr):      199.906924
MG Discrepancy due to finite box and discretization:    -32.902323 ( -14.13274%)
MG Correction to account for finite box:                 33.302345
MG Remaining discrepancy, due to discretization:          0.400022 (   0.17182%)
      Q0=E0+P0:     -47.014246443896=    -47.014246443896+      0.000000000000
    Trial step:       1.000000000000
            G0:     -21.554332115948
MG boundary conditions: total CG'ed q: 42.0000255 over 2892 coarse points
MG Solving with 2nd order solver... done
MG Starting defect correction with a discretization order of: 8
MG Iteration ***   |error|   ***  |defect|  *** |error eq'n residual|  <-- D I
MG         1    0.1225824E+00   0.420083E+00       0.637281818E-04     <-- D I
MG         2    0.2078862E-02   0.285853E-01       0.693202365E-05     <-- D I
MG         3    0.1997681E-03   0.483054E-02       0.198277064E-06     <-- D I
MG         4    0.3845566E-04   0.152572E-02       0.513869620E-06     <-- D I
MG         5    0.1192811E-04   0.635565E-03       0.182040223E-06     <-- D I
MG         6    0.4632083E-05   0.325030E-03       0.714968220E-07     <-- D I
MG Defect correct solution obtained.
MG  - final defect norm:   0.3250E-03
MG  - final error norm :   0.4632E-05
MG  - defect iterations:   6
MG Hartree energy from (\int phi*rho dr):               222.419751
MG Hartree energy from (\int eps (grad phi)^2 dr):      189.516050
MG Discrepancy due to finite box and discretization:    -32.903700 ( -14.79352%)
MG Correction to account for finite box:                 33.303671
MG Remaining discrepancy, due to discretization:          0.399971 (   0.17983%)
WARNING: minimum value of charge density: -0.0536
      Q1=E1+P1:     205.750033756172=    -66.001217930499+    271.751251686671
Quadratic term:    -274.318612316016
   Linear term:     -21.554332115948
  Optimal step:       0.039287039137
 Predicted min:     -47.437649388598
    !!! Quadratic minimum step length accepted !!!
 1    -47.01424644389590 0.11053962699 0.10718034694 0.0393  0.000   42.00000000
MG boundary conditions: total CG'ed q: 42.0000073 over 1919 coarse points
MG Solving with 2nd order solver... done
MG Starting defect correction with a discretization order of: 8
MG Iteration ***   |error|   ***  |defect|  *** |error eq'n residual|  <-- D I
MG         1    0.1232584E+00   0.275503E+00       0.468047612E-04     <-- D I
MG         2    0.1406081E-02   0.227931E-01       0.888263330E-06     <-- D I
MG         3    0.1710348E-03   0.427731E-02       0.197992558E-06     <-- D I
MG         4    0.3311241E-04   0.117535E-02       0.413475452E-06     <-- D I
MG         5    0.9492183E-05   0.442567E-03       0.128139822E-06     <-- D I
MG Defect correct solution obtained.
MG  - final defect norm:   0.4426E-03
MG  - final error norm :   0.9492E-05
MG  - defect iterations:   5
MG Hartree energy from (\int phi*rho dr):               232.270896
MG Hartree energy from (\int eps (grad phi)^2 dr):      199.368555
MG Discrepancy due to finite box and discretization:    -32.902341 ( -14.16550%)
MG Correction to account for finite box:                 33.302368
MG Remaining discrepancy, due to discretization:          0.400027 (   0.17222%)
WARNING: minimum value of charge density: -0.0003
      Q0=E0+P0:     -47.752614094430=    -47.857228104034+      0.104614009604
    Trial step:       0.198209583867
            G0:      -1.617198444867
MG boundary conditions: total CG'ed q: 42.0000083 over 1917 coarse points
MG Solving with 2nd order solver... done
MG Starting defect correction with a discretization order of: 8
MG Iteration ***   |error|   ***  |defect|  *** |error eq'n residual|  <-- D I
MG         1    0.1219050E+00   0.266420E+00       0.450914982E-04     <-- D I
MG         2    0.1359774E-02   0.218611E-01       0.852914247E-06     <-- D I
MG         3    0.1651668E-03   0.408765E-02       0.189520209E-06     <-- D I
MG         4    0.3165399E-04   0.112310E-02       0.394001250E-06     <-- D I
MG         5    0.9054135E-05   0.424261E-03       0.121756615E-06     <-- D I
MG Defect correct solution obtained.
MG  - final defect norm:   0.4243E-03
MG  - final error norm :   0.9054E-05
MG  - defect iterations:   5
MG Hartree energy from (\int phi*rho dr):               231.034425
MG Hartree energy from (\int eps (grad phi)^2 dr):      198.133156
MG Discrepancy due to finite box and discretization:    -32.901269 ( -14.24085%)
MG Correction to account for finite box:                 33.301273
MG Remaining discrepancy, due to discretization:          0.400004 (   0.17314%)
WARNING: minimum value of charge density: -0.0002
      Q1=E1+P1:     -48.055790333864=    -48.166098274451+      0.110307940587
Quadratic term:      -0.017367991353
   Linear term:      -0.320544230787
  Optimal step:       1.829081363060
 Predicted min:     -49.231607862367
    !!! Quadratic minimum step length accepted !!!
 2    -47.85722810403372 0.08265447871 0.10320104781 1.8291 -0.659   42.00000000
MG boundary conditions: total CG'ed q: 42.0000059 over 1822 coarse points
MG Solving with 2nd order solver... done
MG Starting defect correction with a discretization order of: 8
MG Iteration ***   |error|   ***  |defect|  *** |error eq'n residual|  <-- D I
MG         1    0.1128768E+00   0.228318E+00       0.347652628E-04     <-- D I
MG         2    0.1150168E-02   0.156135E-01       0.578650015E-06     <-- D I
MG         3    0.1260620E-03   0.267420E-02       0.122972662E-06     <-- D I
MG         4    0.2084153E-04   0.747664E-03       0.246209962E-06     <-- D I
MG         5    0.5869065E-05   0.302895E-03       0.755777511E-07     <-- D I
MG Defect correct solution obtained.
MG  - final defect norm:   0.3029E-03
MG  - final error norm :   0.5869E-05
MG  - defect iterations:   5
MG Hartree energy from (\int phi*rho dr):               221.579307
MG Hartree energy from (\int eps (grad phi)^2 dr):      188.686763
MG Discrepancy due to finite box and discretization:    -32.892545 ( -14.84459%)
MG Correction to account for finite box:                 33.292352
MG Remaining discrepancy, due to discretization:          0.399807 (   0.18044%)
WARNING: minimum value of charge density: -0.0002
      Q0=E0+P0:     -48.387963114355=    -50.166232475124+      1.778269360769
    Trial step:       0.602114155149
WARNING: internal_polak_cg_coeff =  9.03869
WARNING: setting internal_polak_cg_coeff to zero
            G0:     -30.206969108694
MG boundary conditions: total CG'ed q: 41.9999936 over 2216 coarse points
MG Solving with 2nd order solver... done
MG Starting defect correction with a discretization order of: 8
MG Iteration ***   |error|   ***  |defect|  *** |error eq'n residual|  <-- D I
MG         1    0.1204248E+00   0.277353E+00       0.385454231E-04     <-- D I
MG         2    0.1363465E-02   0.203197E-01       0.460171364E-05     <-- D I
MG         3    0.1417843E-03   0.338155E-02       0.947791478E-06     <-- D I
MG         4    0.2895721E-04   0.929211E-03       0.266106176E-06     <-- D I
MG         5    0.7188511E-05   0.374964E-03       0.890232397E-07     <-- D I
MG Defect correct solution obtained.
MG  - final defect norm:   0.3750E-03
MG  - final error norm :   0.7189E-05
MG  - defect iterations:   5
MG Hartree energy from (\int phi*rho dr):               211.133164
MG Hartree energy from (\int eps (grad phi)^2 dr):      178.153172
MG Discrepancy due to finite box and discretization:    -32.979992 ( -15.62047%)
MG Correction to account for finite box:                 33.381896
MG Remaining discrepancy, due to discretization:          0.401904 (   0.19036%)
WARNING: minimum value of charge density: -0.0627
      Q1=E1+P1:       3.554352150477=    -38.141271774602+     41.695623925079
Quadratic term:     -70.130358949321
   Linear term:     -18.188043684488
  Optimal step:       0.078078015862
 Predicted min:     -49.567213220960
    !!! Quadratic minimum step length accepted !!!
 3    -50.16623247512422 0.13085920735 0.04275266755 0.0781  0.000   42.00000000
MG boundary conditions: total CG'ed q: 41.9999998 over 1706 coarse points
MG Solving with 2nd order solver... done
MG Starting defect correction with a discretization order of: 8
MG Iteration ***   |error|   ***  |defect|  *** |error eq'n residual|  <-- D I
MG         1    0.1107768E+00   0.214936E+00       0.318362418E-04     <-- D I
MG         2    0.1077288E-02   0.144914E-01       0.518958914E-06     <-- D I
MG         3    0.1199028E-03   0.247561E-02       0.110476170E-06     <-- D I
MG         4    0.1943720E-04   0.693958E-03       0.224093405E-06     <-- D I
MG         5    0.5418701E-05   0.281981E-03       0.694803892E-07     <-- D I
MG Defect correct solution obtained.
MG  - final defect norm:   0.2820E-03
MG  - final error norm :   0.5419E-05
MG  - defect iterations:   5
MG Hartree energy from (\int phi*rho dr):               218.513868
MG Hartree energy from (\int eps (grad phi)^2 dr):      185.611659
MG Discrepancy due to finite box and discretization:    -32.902210 ( -15.05726%)
MG Correction to account for finite box:                 33.302250
MG Remaining discrepancy, due to discretization:          0.400040 (   0.18307%)
WARNING: minimum value of charge density: -0.0001

======================== Penalty functional minimisation =======================
   Final total energy     :     -50.145686810612
   Final penalty energy   :       0.854425665895
   RMS occupancy error    :       0.071315
   Occupancy bounds       : [-0.085, 1.126]
================================================================================

Finished density kernel iterations (   3)

################################################################################
########################### NGWF CG iteration  001 #############################
################################################################################
****** Reciprocal space K.E. preconditioning with k_zero =  3.0000 a0^-1 *******
   Initial electron number for spin 1:      42.00000000
     Final electron number for spin 1:      42.00000000

=================== Penalty functional idempotency correction ==================
 RMS occupancy error at iteration   1:  0.071315 (step -0.3969 Ne1=     42.0000)
 RMS occupancy error at iteration   2:  0.004478 (step -0.5041 Ne1=     42.0000)
 RMS occupancy error at iteration   3:  0.000102 (step -0.5004 Ne1=     42.0000)
            Final RMS occupancy error   :  0.000000 (Ne1=     42.0000)
               Final occupancy bounds   : [  0.0000,  1.0000]
================================================================================

................................................................................
<<<<<<<<<<<<<< LNV (Original version) density kernel optimisation >>>>>>>>>>>>>>
~~~~~~~~~~~~~~~~~~~~~~~~~~~~~~~~~~~~~~~~~~~~~~~~~~~~~~~~~~~~~~~~~~~~~~~~~~~~~~~~
iter|       energy      |  rms DeltaK |  commutator |LScoef|CGcoef|      Ne    |
MG boundary conditions: total CG'ed q: 41.9999788 over 2032 coarse points
MG Solving with 2nd order solver... done
MG Starting defect correction with a discretization order of: 8
MG Iteration ***   |error|   ***  |defect|  *** |error eq'n residual|  <-- D I
MG         1    0.1094034E+00   0.210759E+00       0.332185367E-04     <-- D I
MG         2    0.1065712E-02   0.158293E-01       0.594959572E-06     <-- D I
MG         3    0.1282691E-03   0.283195E-02       0.128921141E-06     <-- D I
MG         4    0.2210264E-04   0.777426E-03       0.260959459E-06     <-- D I
MG         5    0.6127543E-05   0.303828E-03       0.797417620E-07     <-- D I
MG Defect correct solution obtained.
MG  - final defect norm:   0.3038E-03
MG  - final error norm :   0.6128E-05
MG  - defect iterations:   5
MG Hartree energy from (\int phi*rho dr):               216.904436
MG Hartree energy from (\int eps (grad phi)^2 dr):      184.007629
MG Discrepancy due to finite box and discretization:    -32.896807 ( -15.16650%)
MG Correction to account for finite box:                 33.296721
MG Remaining discrepancy, due to discretization:          0.399914 (   0.18437%)
      ideal mu1:      -0.788035408330
             Q0:     -48.185732932191
             G0:      -0.484494522512
   RMS gradient:       0.016572771609
MG boundary conditions: total CG'ed q: 41.9999793 over 2016 coarse points
MG Solving with 2nd order solver... done
MG Starting defect correction with a discretization order of: 8
MG Iteration ***   |error|   ***  |defect|  *** |error eq'n residual|  <-- D I
MG         1    0.1126738E+00   0.217145E+00       0.346209511E-04     <-- D I
MG         2    0.1098897E-02   0.167751E-01       0.639289905E-06     <-- D I
MG         3    0.1340365E-03   0.306135E-02       0.139918657E-06     <-- D I
MG         4    0.2384091E-04   0.837137E-03       0.284983120E-06     <-- D I
MG         5    0.6657936E-05   0.322160E-03       0.871567984E-07     <-- D I
MG Defect correct solution obtained.
MG  - final defect norm:   0.3222E-03
MG  - final error norm :   0.6658E-05
MG  - defect iterations:   5
MG Hartree energy from (\int phi*rho dr):               220.864456
MG Hartree energy from (\int eps (grad phi)^2 dr):      187.965827
MG Discrepancy due to finite box and discretization:    -32.898629 ( -14.89539%)
MG Correction to account for finite box:                 33.298586
MG Remaining discrepancy, due to discretization:          0.399956 (   0.18109%)
     Trial step:       0.500000000000
             Q1:     -48.266396162040
 Quadratic coef:       0.161584031407
 Linear coef   :      -0.242247261256
           Qmin:     -48.276527386128
Quadratic minimum step length (  0.374800744768) accepted
    Initial Ne1:      42.00000482
      Final Ne1:      42.00000000

=================== Penalty functional idempotency correction ==================
 RMS occupancy error at iteration   1:  0.002216 (step -0.4936 Ne1=     42.0000)
 RMS occupancy error at iteration   2:  0.000013 (step -0.5000 Ne1=     42.0000)
            Final RMS occupancy error   :  0.000000 (Ne1=     42.0000)
               Final occupancy bounds   : [  0.0000,  1.0000]
================================================================================

 1    -48.18573293219129 0.00000000000 0.03353765562 0.3748  0.000   42.00000000
MG boundary conditions: total CG'ed q: 41.9999793 over 2024 coarse points
MG Solving with 2nd order solver... done
MG Starting defect correction with a discretization order of: 8
MG Iteration ***   |error|   ***  |defect|  *** |error eq'n residual|  <-- D I
MG         1    0.1118406E+00   0.215066E+00       0.342059304E-04     <-- D I
MG         2    0.1088196E-02   0.165059E-01       0.627341543E-06     <-- D I
MG         3    0.1324028E-03   0.299841E-02       0.136962037E-06     <-- D I
MG         4    0.2336370E-04   0.820601E-03       0.278443612E-06     <-- D I
MG         5    0.6512535E-05   0.316953E-03       0.851048556E-07     <-- D I
MG Defect correct solution obtained.
MG  - final defect norm:   0.3170E-03
MG  - final error norm :   0.6513E-05
MG  - defect iterations:   5
MG Hartree energy from (\int phi*rho dr):               219.876060
MG Hartree energy from (\int eps (grad phi)^2 dr):      186.977897
MG Discrepancy due to finite box and discretization:    -32.898163 ( -14.96214%)
MG Correction to account for finite box:                 33.298108
MG Remaining discrepancy, due to discretization:          0.399945 (   0.18190%)
      ideal mu1:      -0.720975043609
             Q0:     -48.277038626766
             G0:      -0.011832120201
   RMS gradient:       0.002576993919
MG boundary conditions: total CG'ed q: 41.9999792 over 2025 coarse points
MG Solving with 2nd order solver... done
MG Starting defect correction with a discretization order of: 8
MG Iteration ***   |error|   ***  |defect|  *** |error eq'n residual|  <-- D I
MG         1    0.1117024E+00   0.212959E+00       0.336690690E-04     <-- D I
MG         2    0.1075935E-02   0.162714E-01       0.616218399E-06     <-- D I
MG         3    0.1310095E-03   0.295008E-02       0.134371304E-06     <-- D I
MG         4    0.2299506E-04   0.806740E-03       0.272907530E-06     <-- D I
MG         5    0.6391222E-05   0.311925E-03       0.833821540E-07     <-- D I
MG Defect correct solution obtained.
MG  - final defect norm:   0.3119E-03
MG  - final error norm :   0.6391E-05
MG  - defect iterations:   5
MG Hartree energy from (\int phi*rho dr):               219.807394
MG Hartree energy from (\int eps (grad phi)^2 dr):      186.908720
MG Discrepancy due to finite box and discretization:    -32.898674 ( -14.96705%)
MG Correction to account for finite box:                 33.298632
MG Remaining discrepancy, due to discretization:          0.399958 (   0.18196%)
     Trial step:       0.432897646545
             Q1:     -48.280246929643
 Quadratic coef:       0.001913794112
 Linear coef   :      -0.005122096989
           Qmin:     -48.280465834191
Quadratic minimum step length (  0.579305714814) accepted
    Initial Ne1:      42.00000012
      Final Ne1:      42.00000000

=================== Penalty functional idempotency correction ==================
 RMS occupancy error at iteration   1:  0.000292 (step -0.4992 Ne1=     42.0000)
 RMS occupancy error at iteration   2:  0.000000 (step -0.5000 Ne1=     42.0000)
            Final RMS occupancy error   :  0.000000 (Ne1=     42.0000)
               Final occupancy bounds   : [  0.0000,  1.0000]
================================================================================

 2    -48.27703862676573 0.01395233516 0.00541282564 0.5793  0.024   42.00000000
MG boundary conditions: total CG'ed q: 41.9999792 over 2023 coarse points
MG Solving with 2nd order solver... done
MG Starting defect correction with a discretization order of: 8
MG Iteration ***   |error|   ***  |defect|  *** |error eq'n residual|  <-- D I
MG         1    0.1116568E+00   0.212264E+00       0.334901935E-04     <-- D I
MG         2    0.1071883E-02   0.161940E-01       0.612519619E-06     <-- D I
MG         3    0.1305504E-03   0.293413E-02       0.133511644E-06     <-- D I
MG         4    0.2287356E-04   0.802163E-03       0.271075368E-06     <-- D I
MG         5    0.6351091E-05   0.310263E-03       0.828129939E-07     <-- D I
MG Defect correct solution obtained.
MG  - final defect norm:   0.3103E-03
MG  - final error norm :   0.6351E-05
MG  - defect iterations:   5
MG Hartree energy from (\int phi*rho dr):               219.783901
MG Hartree energy from (\int eps (grad phi)^2 dr):      186.885052
MG Discrepancy due to finite box and discretization:    -32.898849 ( -14.96873%)
MG Correction to account for finite box:                 33.298812
MG Remaining discrepancy, due to discretization:          0.399963 (   0.18198%)
      ideal mu1:      -0.723175452897
 3    -48.28047269488396 0.00359035838 0.00235870129 0.0000  0.000   42.00000000
Finished density kernel iterations (   3)

           ........................................................
           | *** NGWF optimisation not converged ***              |
           | RMS NGWF gradient =    0.00567286714454              |
           | Criteria not satisfied:                              |
           | -> RMS NGWF gradient higher than set threshold.      |
           ========================================================

------------------------------- NGWF line search -------------------------------
============ Calculation of NGWF S^-1 using Hotelling algorithm ================ 
         Iteration  |  Frobenius norm and Maximum abs value    (of I-S*S_n^-1)   
               1       0.16354751E-01     0.51136739E-02
               2       0.51601009E-04     0.23619215E-04
               3       0.10341351E-08     0.54527283E-09
               4       0.83785543E-14     0.19984014E-14
================================================================================
MG boundary conditions: total CG'ed q: 41.9999766 over 2152 coarse points
MG Solving with 2nd order solver... done
MG Starting defect correction with a discretization order of: 8
MG Iteration ***   |error|   ***  |defect|  *** |error eq'n residual|  <-- D I
MG         1    0.1140680E+00   0.258602E+00       0.460266491E-04     <-- D I
MG         2    0.1352504E-02   0.248191E-01       0.957826821E-06     <-- D I
MG         3    0.1867885E-03   0.499837E-02       0.227697615E-06     <-- D I
MG         4    0.3932182E-04   0.139059E-02       0.500888422E-06     <-- D I
MG         5    0.1142716E-04   0.501644E-03       0.158711895E-06     <-- D I
MG         6    0.4074164E-05   0.227277E-03       0.594968259E-07     <-- D I
MG Defect correct solution obtained.
MG  - final defect norm:   0.2273E-03
MG  - final error norm :   0.4074E-05
MG  - defect iterations:   6
MG Hartree energy from (\int phi*rho dr):               220.688079
MG Hartree energy from (\int eps (grad phi)^2 dr):      187.789102
MG Discrepancy due to finite box and discretization:    -32.898977 ( -14.90746%)
MG Correction to account for finite box:                 33.298923
MG Remaining discrepancy, due to discretization:          0.399946 (   0.18123%)
============ Calculation of NGWF S^-1 using Hotelling algorithm ================ 
         Iteration  |  Frobenius norm and Maximum abs value    (of I-S*S_n^-1)   
               1       0.23837397E+00     0.44144103E-01
               2       0.99975480E-02     0.16930753E-02
               3       0.18515625E-04     0.30528292E-05
               4       0.76702908E-10     0.12260415E-10
               5       0.74979687E-14     0.22204460E-14
================================================================================
RMS gradient                =       0.00567286714454
Trial step length           =               0.122474
Gradient along search dir.  =        -10.40763266534
Functional at step 0        =     -48.28047269488396
Functional at step 1        =     -49.44971699805200
Functional predicted        =     -52.13340048176683
Selected quadratic step     =               0.740404
--------------------------- NGWF line search finished --------------------------
                                               

################################################################################
########################### NGWF CG iteration  002 #############################
################################################################################
****** Reciprocal space K.E. preconditioning with k_zero =  3.0000 a0^-1 *******
   Initial electron number for spin 1:      43.14846193
     Final electron number for spin 1:      42.00000000

=================== Penalty functional idempotency correction ==================
 RMS occupancy error at iteration   1:  0.014351 (step -0.4774 Ne1=     42.0000)
 RMS occupancy error at iteration   2:  0.000163 (step -0.5003 Ne1=     42.0000)
            Final RMS occupancy error   :  0.000000 (Ne1=     42.0000)
               Final occupancy bounds   : [  0.0000,  1.0000]
================================================================================

................................................................................
<<<<<<<<<<<<<< LNV (Original version) density kernel optimisation >>>>>>>>>>>>>>
~~~~~~~~~~~~~~~~~~~~~~~~~~~~~~~~~~~~~~~~~~~~~~~~~~~~~~~~~~~~~~~~~~~~~~~~~~~~~~~~
iter|       energy      |  rms DeltaK |  commutator |LScoef|CGcoef|      Ne    |
MG boundary conditions: total CG'ed q: 41.9999683 over 3008 coarse points
MG Solving with 2nd order solver... done
MG Starting defect correction with a discretization order of: 8
MG Iteration ***   |error|   ***  |defect|  *** |error eq'n residual|  <-- D I
MG         1    0.1310303E+00   0.616422E+00       0.130008309E-03     <-- D I
MG         2    0.3492767E-02   0.899982E-01       0.342071403E-05     <-- D I
MG         3    0.6664933E-03   0.226133E-01       0.997605158E-06     <-- D I
MG         4    0.1885798E-03   0.729330E-02       0.335414770E-06     <-- D I
MG         5    0.6555017E-04   0.278006E-02       0.124864808E-06     <-- D I
MG         6    0.2599998E-04   0.119692E-02       0.501898044E-07     <-- D I
MG         7    0.1124151E-04   0.584925E-03       0.214137899E-07     <-- D I
MG         8    0.5159690E-05   0.348823E-03       0.959155509E-08     <-- D I
MG Defect correct solution obtained.
MG  - final defect norm:   0.3488E-03
MG  - final error norm :   0.5160E-05
MG  - defect iterations:   8
MG Hartree energy from (\int phi*rho dr):               226.236869
MG Hartree energy from (\int eps (grad phi)^2 dr):      193.337217
MG Discrepancy due to finite box and discretization:    -32.899652 ( -14.54213%)
MG Correction to account for finite box:                 33.299337
MG Remaining discrepancy, due to discretization:          0.399684 (   0.17667%)
      ideal mu1:      -0.665632990711
             Q0:     -51.948898071791
             G0:      -0.204210192996
   RMS gradient:       0.010759433792
MG boundary conditions: total CG'ed q: 41.9999683 over 2997 coarse points
MG Solving with 2nd order solver... done
MG Starting defect correction with a discretization order of: 8
MG Iteration ***   |error|   ***  |defect|  *** |error eq'n residual|  <-- D I
MG         1    0.1297214E+00   0.620150E+00       0.131557491E-03     <-- D I
MG         2    0.3522589E-02   0.915445E-01       0.347025593E-05     <-- D I
MG         3    0.6773446E-03   0.229933E-01       0.101247365E-05     <-- D I
MG         4    0.1915654E-03   0.740318E-02       0.340231515E-06     <-- D I
MG         5    0.6649498E-04   0.281726E-02       0.126483316E-06     <-- D I
MG         6    0.2633953E-04   0.121087E-02       0.507467612E-07     <-- D I
MG         7    0.1137617E-04   0.590003E-03       0.216086165E-07     <-- D I
MG         8    0.5217276E-05   0.349931E-03       0.966064274E-08     <-- D I
MG Defect correct solution obtained.
MG  - final defect norm:   0.3499E-03
MG  - final error norm :   0.5217E-05
MG  - defect iterations:   8
MG Hartree energy from (\int phi*rho dr):               225.226588
MG Hartree energy from (\int eps (grad phi)^2 dr):      192.327628
MG Discrepancy due to finite box and discretization:    -32.898960 ( -14.60705%)
MG Correction to account for finite box:                 33.298620
MG Remaining discrepancy, due to discretization:          0.399660 (   0.17745%)
     Trial step:       0.500779472995
             Q1:     -52.003153889467
 Quadratic coef:       0.048008455153
 Linear coef   :      -0.102264272829
           Qmin:     -52.003357132512
Quadratic minimum step length (  0.533362805471) accepted
    Initial Ne1:      41.99998385
      Final Ne1:      42.00000000

=================== Penalty functional idempotency correction ==================
 RMS occupancy error at iteration   1:  0.002816 (step -0.4877 Ne1=     42.0000)
 RMS occupancy error at iteration   2:  0.000029 (step -0.5000 Ne1=     42.0000)
            Final RMS occupancy error   :  0.000000 (Ne1=     42.0000)
               Final occupancy bounds   : [  0.0000,  1.0000]
================================================================================

 1    -51.94889807179100 0.00000000000 0.02220165045 0.5334  0.000   42.00000000
MG boundary conditions: total CG'ed q: 41.9999682 over 2995 coarse points
MG Solving with 2nd order solver... done
MG Starting defect correction with a discretization order of: 8
MG Iteration ***   |error|   ***  |defect|  *** |error eq'n residual|  <-- D I
MG         1    0.1296363E+00   0.620401E+00       0.131656799E-03     <-- D I
MG         2    0.3524572E-02   0.916455E-01       0.347346577E-05     <-- D I
MG         3    0.6780556E-03   0.230183E-01       0.101345015E-05     <-- D I
MG         4    0.1917625E-03   0.741046E-02       0.340551060E-06     <-- D I
MG         5    0.6655784E-04   0.281974E-02       0.126591588E-06     <-- D I
MG         6    0.2636224E-04   0.121180E-02       0.507843266E-07     <-- D I
MG         7    0.1138520E-04   0.590354E-03       0.216218835E-07     <-- D I
MG         8    0.5221145E-05   0.350025E-03       0.966540581E-08     <-- D I
MG Defect correct solution obtained.
MG  - final defect norm:   0.3500E-03
MG  - final error norm :   0.5221E-05
MG  - defect iterations:   8
MG Hartree energy from (\int phi*rho dr):               225.159147
MG Hartree energy from (\int eps (grad phi)^2 dr):      192.260230
MG Discrepancy due to finite box and discretization:    -32.898916 ( -14.61141%)
MG Correction to account for finite box:                 33.298574
MG Remaining discrepancy, due to discretization:          0.399658 (   0.17750%)
      ideal mu1:      -0.691872454383
             Q0:     -52.004091083015
             G0:      -0.027556346237
   RMS gradient:       0.003928052328
MG boundary conditions: total CG'ed q: 41.9999681 over 2977 coarse points
MG Solving with 2nd order solver... done
MG Starting defect correction with a discretization order of: 8
MG Iteration ***   |error|   ***  |defect|  *** |error eq'n residual|  <-- D I
MG         1    0.1303788E+00   0.629540E+00       0.134361586E-03     <-- D I
MG         2    0.3588750E-02   0.940338E-01       0.357015848E-05     <-- D I
MG         3    0.6963803E-03   0.237311E-01       0.104513481E-05     <-- D I
MG         4    0.1978344E-03   0.765461E-02       0.351810259E-06     <-- D I
MG         5    0.6879608E-04   0.291404E-02       0.130933106E-06     <-- D I
MG         6    0.2727075E-04   0.125212E-02       0.525790132E-07     <-- D I
MG         7    0.1178201E-04   0.609742E-03       0.224058458E-07     <-- D I
MG         8    0.5404147E-05   0.361417E-03       0.100228996E-07     <-- D I
MG Defect correct solution obtained.
MG  - final defect norm:   0.3614E-03
MG  - final error norm :   0.5404E-05
MG  - defect iterations:   8
MG Hartree energy from (\int phi*rho dr):               225.850667
MG Hartree energy from (\int eps (grad phi)^2 dr):      192.951682
MG Discrepancy due to finite box and discretization:    -32.898985 ( -14.56670%)
MG Correction to account for finite box:                 33.298633
MG Remaining discrepancy, due to discretization:          0.399648 (   0.17695%)
     Trial step:       0.516814419921
             Q1:     -52.009806238805
 Quadratic coef:       0.008526361306
 Linear coef   :      -0.014241517096
           Qmin:     -52.010037957711
Quadratic minimum step length (  0.431615617302) accepted
    Initial Ne1:      41.99999805
      Final Ne1:      42.00000000

=================== Penalty functional idempotency correction ==================
 RMS occupancy error at iteration   1:  0.000702 (step -0.4974 Ne1=     42.0000)
 RMS occupancy error at iteration   2:  0.000002 (step -0.5000 Ne1=     42.0000)
            Final RMS occupancy error   :  0.000000 (Ne1=     42.0000)
               Final occupancy bounds   : [  0.0000,  1.0000]
================================================================================

 2    -52.00409108301534 0.01588067130 0.00766552189 0.4316  0.133   42.00000000
MG boundary conditions: total CG'ed q: 41.9999681 over 2979 coarse points
MG Solving with 2nd order solver... done
MG Starting defect correction with a discretization order of: 8
MG Iteration ***   |error|   ***  |defect|  *** |error eq'n residual|  <-- D I
MG         1    0.1302558E+00   0.628012E+00       0.133912326E-03     <-- D I
MG         2    0.3578046E-02   0.936371E-01       0.355414460E-05     <-- D I
MG         3    0.6933380E-03   0.236129E-01       0.103988686E-05     <-- D I
MG         4    0.1968276E-03   0.761413E-02       0.349945127E-06     <-- D I
MG         5    0.6842508E-04   0.289840E-02       0.130213949E-06     <-- D I
MG         6    0.2712018E-04   0.124544E-02       0.522817794E-07     <-- D I
MG         7    0.1171625E-04   0.606524E-03       0.222760324E-07     <-- D I
MG         8    0.5373823E-05   0.359522E-03       0.996371391E-08     <-- D I
MG Defect correct solution obtained.
MG  - final defect norm:   0.3595E-03
MG  - final error norm :   0.5374E-05
MG  - defect iterations:   8
MG Hartree energy from (\int phi*rho dr):               225.737539
MG Hartree energy from (\int eps (grad phi)^2 dr):      192.838566
MG Discrepancy due to finite box and discretization:    -32.898973 ( -14.57399%)
MG Correction to account for finite box:                 33.298622
MG Remaining discrepancy, due to discretization:          0.399649 (   0.17704%)
      ideal mu1:      -0.678573680976
 3    -52.01008647928123 0.00426952187 0.00239395101 0.0000  0.000   42.00000000
Finished density kernel iterations (   3)

           ........................................................
           | *** NGWF optimisation not converged ***              |
           | RMS NGWF gradient =    0.00201815025137              |
           | Criteria not satisfied:                              |
           | -> RMS NGWF gradient higher than set threshold.      |
           ========================================================

------------------------------- NGWF line search -------------------------------
============ Calculation of NGWF S^-1 using Hotelling algorithm ================ 
         Iteration  |  Frobenius norm and Maximum abs value    (of I-S*S_n^-1)   
               1       0.35896776E-01     0.58603546E-02
               2       0.31175090E-03     0.48710589E-04
               3       0.41409475E-07     0.57084369E-08
               4       0.87319797E-14     0.19984014E-14
================================================================================
MG boundary conditions: total CG'ed q: 41.9999667 over 3098 coarse points
MG Solving with 2nd order solver... done
MG Starting defect correction with a discretization order of: 8
MG Iteration ***   |error|   ***  |defect|  *** |error eq'n residual|  <-- D I
MG         1    0.1303357E+00   0.616296E+00       0.131982747E-03     <-- D I
MG         2    0.3533186E-02   0.962312E-01       0.360438011E-05     <-- D I
MG         3    0.7113136E-03   0.247638E-01       0.106725545E-05     <-- D I
MG         4    0.2054737E-03   0.806552E-02       0.361497035E-06     <-- D I
MG         5    0.7223727E-04   0.310586E-02       0.135524758E-06     <-- D I
MG         6    0.2893255E-04   0.137560E-02       0.549664766E-07     <-- D I
MG         7    0.1263575E-04   0.733366E-03       0.237222847E-07     <-- D I
MG         8    0.5860276E-05   0.511427E-03       0.107744063E-07     <-- D I
MG Defect correct solution obtained.
MG  - final defect norm:   0.5114E-03
MG  - final error norm :   0.5860E-05
MG  - defect iterations:   8
MG Hartree energy from (\int phi*rho dr):               226.371636
MG Hartree energy from (\int eps (grad phi)^2 dr):      193.472645
MG Discrepancy due to finite box and discretization:    -32.898992 ( -14.53318%)
MG Correction to account for finite box:                 33.298664
MG Remaining discrepancy, due to discretization:          0.399673 (   0.17656%)
============ Calculation of NGWF S^-1 using Hotelling algorithm ================ 
         Iteration  |  Frobenius norm and Maximum abs value    (of I-S*S_n^-1)   
               1       0.31916405E-01     0.66602030E-02
               2       0.23473735E-03     0.46442432E-04
               3       0.19071874E-07     0.36892793E-08
               4       0.83434232E-14     0.22204460E-14
================================================================================
RMS gradient                =       0.00201815025137
Trial step length           =               0.301132
Gradient along search dir.  =         -1.31720606802
Functional at step 0        =     -52.01008647928123
Functional at step 1        =     -52.29038503889635
Functional predicted        =     -52.34813433295508
Selected quadratic step     =               0.513280
--------------------------- NGWF line search finished --------------------------
                                               

################################################################################
########################### NGWF CG iteration  003 #############################
################################################################################
****** Reciprocal space K.E. preconditioning with k_zero =  3.0000 a0^-1 *******
   Initial electron number for spin 1:      42.17051688
     Final electron number for spin 1:      42.00000000

=================== Penalty functional idempotency correction ==================
 RMS occupancy error at iteration   1:  0.002587 (step -0.4945 Ne1=     42.0000)
 RMS occupancy error at iteration   2:  0.000013 (step -0.5001 Ne1=     42.0000)
            Final RMS occupancy error   :  0.000000 (Ne1=     42.0000)
               Final occupancy bounds   : [  0.0000,  1.0000]
================================================================================

................................................................................
<<<<<<<<<<<<<< LNV (Original version) density kernel optimisation >>>>>>>>>>>>>>
~~~~~~~~~~~~~~~~~~~~~~~~~~~~~~~~~~~~~~~~~~~~~~~~~~~~~~~~~~~~~~~~~~~~~~~~~~~~~~~~
iter|       energy      |  rms DeltaK |  commutator |LScoef|CGcoef|      Ne    |
MG boundary conditions: total CG'ed q: 41.9999660 over 3214 coarse points
MG Solving with 2nd order solver... done
MG Starting defect correction with a discretization order of: 8
MG Iteration ***   |error|   ***  |defect|  *** |error eq'n residual|  <-- D I
MG         1    0.1303977E+00   0.610067E+00       0.130868535E-03     <-- D I
MG         2    0.3511759E-02   0.983919E-01       0.364376270E-05     <-- D I
MG         3    0.7257770E-03   0.256562E-01       0.108772767E-05     <-- D I
MG         4    0.2120881E-03   0.841749E-02       0.370269771E-06     <-- D I
MG         5    0.7513618E-04   0.327831E-02       0.139655341E-06     <-- D I
MG         6    0.3031067E-04   0.150294E-02       0.571021595E-07     <-- D I
MG         7    0.1333595E-04   0.874351E-03       0.248980139E-07     <-- D I
MG         8    0.6231662E-05   0.676014E-03       0.114454303E-07     <-- D I
MG Defect correct solution obtained.
MG  - final defect norm:   0.6760E-03
MG  - final error norm :   0.6232E-05
MG  - defect iterations:   8
MG Hartree energy from (\int phi*rho dr):               226.796367
MG Hartree energy from (\int eps (grad phi)^2 dr):      193.897359
MG Discrepancy due to finite box and discretization:    -32.899007 ( -14.50597%)
MG Correction to account for finite box:                 33.298699
MG Remaining discrepancy, due to discretization:          0.399691 (   0.17623%)
      ideal mu1:      -0.662140901706
             Q0:     -52.348463464081
             G0:      -0.006491740585
   RMS gradient:       0.001918365202
MG boundary conditions: total CG'ed q: 41.9999661 over 3218 coarse points
MG Solving with 2nd order solver... done
MG Starting defect correction with a discretization order of: 8
MG Iteration ***   |error|   ***  |defect|  *** |error eq'n residual|  <-- D I
MG         1    0.1301109E+00   0.608525E+00       0.130371048E-03     <-- D I
MG         2    0.3499830E-02   0.978912E-01       0.362487364E-05     <-- D I
MG         3    0.7219462E-03   0.255092E-01       0.108144706E-05     <-- D I
MG         4    0.2108552E-03   0.836808E-02       0.368033497E-06     <-- D I
MG         5    0.7469213E-04   0.325926E-02       0.138807432E-06     <-- D I
MG         6    0.3013315E-04   0.149435E-02       0.567609763E-07     <-- D I
MG         7    0.1325910E-04   0.869347E-03       0.247528412E-07     <-- D I
MG         8    0.6196389E-05   0.672073E-03       0.113803606E-07     <-- D I
MG Defect correct solution obtained.
MG  - final defect norm:   0.6721E-03
MG  - final error norm :   0.6196E-05
MG  - defect iterations:   8
MG Hartree energy from (\int phi*rho dr):               226.381973
MG Hartree energy from (\int eps (grad phi)^2 dr):      193.483042
MG Discrepancy due to finite box and discretization:    -32.898930 ( -14.53249%)
MG Correction to account for finite box:                 33.298622
MG Remaining discrepancy, due to discretization:          0.399691 (   0.17656%)
     Trial step:       0.472297760830
             Q1:     -52.350026028852
 Quadratic coef:       0.001503469771
 Linear coef   :      -0.003066034542
           Qmin:     -52.350026609545
Quadratic minimum step length (  0.481579768436) accepted
    Initial Ne1:      41.99999988
      Final Ne1:      42.00000000

=================== Penalty functional idempotency correction ==================
 RMS occupancy error at iteration   1:  0.000050 (step -0.4999 Ne1=     42.0000)
            Final RMS occupancy error   :  0.000000 (Ne1=     42.0000)
               Final occupancy bounds   : [  0.0000,  1.0000]
================================================================================

 1    -52.34846346408132 0.00000000000 0.00400918791 0.4816  0.000   42.00000000
MG boundary conditions: total CG'ed q: 41.9999661 over 3218 coarse points
MG Solving with 2nd order solver... done
MG Starting defect correction with a discretization order of: 8
MG Iteration ***   |error|   ***  |defect|  *** |error eq'n residual|  <-- D I
MG         1    0.1301053E+00   0.608495E+00       0.130361338E-03     <-- D I
MG         2    0.3499598E-02   0.978814E-01       0.362450357E-05     <-- D I
MG         3    0.7218712E-03   0.255063E-01       0.108132397E-05     <-- D I
MG         4    0.2108311E-03   0.836711E-02       0.367989666E-06     <-- D I
MG         5    0.7468343E-04   0.325889E-02       0.138790811E-06     <-- D I
MG         6    0.3012967E-04   0.149418E-02       0.567542870E-07     <-- D I
MG         7    0.1325759E-04   0.869249E-03       0.247499943E-07     <-- D I
MG         8    0.6195697E-05   0.671996E-03       0.113790843E-07     <-- D I
MG Defect correct solution obtained.
MG  - final defect norm:   0.6720E-03
MG  - final error norm :   0.6196E-05
MG  - defect iterations:   8
MG Hartree energy from (\int phi*rho dr):               226.373817
MG Hartree energy from (\int eps (grad phi)^2 dr):      193.474889
MG Discrepancy due to finite box and discretization:    -32.898929 ( -14.53301%)
MG Correction to account for finite box:                 33.298620
MG Remaining discrepancy, due to discretization:          0.399691 (   0.17656%)
      ideal mu1:      -0.672020461776
             Q0:     -52.350026726711
             G0:      -0.000504922876
   RMS gradient:       0.000535228087
MG boundary conditions: total CG'ed q: 41.9999661 over 3219 coarse points
MG Solving with 2nd order solver... done
MG Starting defect correction with a discretization order of: 8
MG Iteration ***   |error|   ***  |defect|  *** |error eq'n residual|  <-- D I
MG         1    0.1301592E+00   0.608743E+00       0.130409459E-03     <-- D I
MG         2    0.3501028E-02   0.979109E-01       0.362582112E-05     <-- D I
MG         3    0.7220960E-03   0.255152E-01       0.108172655E-05     <-- D I
MG         4    0.2109083E-03   0.837040E-02       0.368134459E-06     <-- D I
MG         5    0.7471398E-04   0.326030E-02       0.138851715E-06     <-- D I
MG         6    0.3014310E-04   0.149489E-02       0.567825944E-07     <-- D I
MG         7    0.1326390E-04   0.869713E-03       0.247638086E-07     <-- D I
MG         8    0.6198782E-05   0.672386E-03       0.113859812E-07     <-- D I
MG Defect correct solution obtained.
MG  - final defect norm:   0.6724E-03
MG  - final error norm :   0.6199E-05
MG  - defect iterations:   8
MG Hartree energy from (\int phi*rho dr):               226.416095
MG Hartree energy from (\int eps (grad phi)^2 dr):      193.517195
MG Discrepancy due to finite box and discretization:    -32.898900 ( -14.53028%)
MG Correction to account for finite box:                 33.298591
MG Remaining discrepancy, due to discretization:          0.399691 (   0.17653%)
     Trial step:       0.476916183719
             Q1:     -52.350180838875
 Quadratic coef:       0.000086693726
 Linear coef   :      -0.000240805891
           Qmin:     -52.350193946069
Quadratic minimum step length (  0.662356040369) accepted
    Initial Ne1:      42.00000051
      Final Ne1:      42.00000000

=================== Penalty functional idempotency correction ==================
 RMS occupancy error at iteration   1:  0.000017 (step -0.4999 Ne1=     42.0000)
            Final RMS occupancy error   :  0.000000 (Ne1=     42.0000)
               Final occupancy bounds   : [  0.0000,  1.0000]
================================================================================

 2    -52.35002672671060 0.00181319590 0.00117897326 0.6624  0.078   42.00000000
MG boundary conditions: total CG'ed q: 41.9999661 over 3219 coarse points
MG Solving with 2nd order solver... done
MG Starting defect correction with a discretization order of: 8
MG Iteration ***   |error|   ***  |defect|  *** |error eq'n residual|  <-- D I
MG         1    0.1301802E+00   0.608840E+00       0.130428212E-03     <-- D I
MG         2    0.3501585E-02   0.979224E-01       0.362633560E-05     <-- D I
MG         3    0.7221838E-03   0.255186E-01       0.108188396E-05     <-- D I
MG         4    0.2109385E-03   0.837169E-02       0.368191101E-06     <-- D I
MG         5    0.7472594E-04   0.326085E-02       0.138875533E-06     <-- D I
MG         6    0.3014835E-04   0.149517E-02       0.567936582E-07     <-- D I
MG         7    0.1326636E-04   0.869895E-03       0.247692045E-07     <-- D I
MG         8    0.6199987E-05   0.672539E-03       0.113886739E-07     <-- D I
MG Defect correct solution obtained.
MG  - final defect norm:   0.6725E-03
MG  - final error norm :   0.6200E-05
MG  - defect iterations:   8
MG Hartree energy from (\int phi*rho dr):               226.432499
MG Hartree energy from (\int eps (grad phi)^2 dr):      193.533609
MG Discrepancy due to finite box and discretization:    -32.898890 ( -14.52923%)
MG Correction to account for finite box:                 33.298580
MG Remaining discrepancy, due to discretization:          0.399690 (   0.17652%)
      ideal mu1:      -0.670671340247
 3    -52.35019397107196 0.00071650116 0.00039429903 0.0000  0.000   42.00000000
Finished density kernel iterations (   3)

           ........................................................
           | *** NGWF optimisation not converged ***              |
           | RMS NGWF gradient =    0.00077073444445              |
           | Criteria not satisfied:                              |
           | -> RMS NGWF gradient higher than set threshold.      |
           ========================================================
MG boundary conditions: total CG'ed q: 41.9999661 over 3219 coarse points
MG Solving with 2nd order solver... done
MG Starting defect correction with a discretization order of: 8
MG Iteration ***   |error|   ***  |defect|  *** |error eq'n residual|  <-- D I
MG         1    0.1301802E+00   0.608840E+00       0.130428212E-03     <-- D I
MG         2    0.3501585E-02   0.979224E-01       0.362633560E-05     <-- D I
MG         3    0.7221838E-03   0.255186E-01       0.108188396E-05     <-- D I
MG         4    0.2109385E-03   0.837169E-02       0.368191101E-06     <-- D I
MG         5    0.7472594E-04   0.326085E-02       0.138875533E-06     <-- D I
MG         6    0.3014835E-04   0.149517E-02       0.567936582E-07     <-- D I
MG         7    0.1326636E-04   0.869895E-03       0.247692045E-07     <-- D I
MG         8    0.6199987E-05   0.672539E-03       0.113886739E-07     <-- D I
MG Defect correct solution obtained.
MG  - final defect norm:   0.6725E-03
MG  - final error norm :   0.6200E-05
MG  - defect iterations:   8
MG Hartree energy from (\int phi*rho dr):               226.432499
MG Hartree energy from (\int eps (grad phi)^2 dr):      193.533609
MG Discrepancy due to finite box and discretization:    -32.898890 ( -14.52923%)
MG Correction to account for finite box:                 33.298580
MG Remaining discrepancy, due to discretization:          0.399690 (   0.17652%)

================================================================================
           ---------------- ENERGY COMPONENTS (Eh) ----------------
           | Kinetic                    :       38.21609450722529 |
           | Pseudopot. (local, OBC):         -502.45399045710872 |
           | Pseudopotential (non-local):        6.15977091696365 |
           | Hartree (OBC)              :      226.43249882426153 |
           | Exchange-correlation       :      -17.67976598992624 |
           | Ion-ion (open BC)          :      196.97519822751252 |
           | Total                      :      -52.35019397107196 |
           --------------------------------------------------------
           ------ LOCAL ENERGY COMPONENTS FROM MATRIX TRACES ------
           | Pseudopotential (local)    :     -502.45399045712225 |
           | Hartree                    :      226.43249882426426 |
           --------------------------------------------------------
           Integrated density           :       41.99999999999920
           Integrated density tr(KS)    :       42.00000000000000
================================================================================


------------------------------- NGWF line search -------------------------------
============ Calculation of NGWF S^-1 using Hotelling algorithm ================ 
         Iteration  |  Frobenius norm and Maximum abs value    (of I-S*S_n^-1)   
               1       0.35399756E-01     0.35686924E-02
               2       0.24320303E-03     0.28439788E-04
               3       0.19060060E-07     0.19526427E-08
               4       0.76032631E-14     0.15543122E-14
================================================================================
MG boundary conditions: total CG'ed q: 41.9999671 over 3262 coarse points
MG Solving with 2nd order solver... done
MG Starting defect correction with a discretization order of: 8
MG Iteration ***   |error|   ***  |defect|  *** |error eq'n residual|  <-- D I
MG         1    0.1312891E+00   0.623454E+00       0.133339925E-03     <-- D I
MG         2    0.3582293E-02   0.100153E+00       0.370363434E-05     <-- D I
MG         3    0.7382033E-03   0.261433E-01       0.110749751E-05     <-- D I
MG         4    0.2160155E-03   0.858512E-02       0.377600441E-06     <-- D I
MG         5    0.7659460E-04   0.334050E-02       0.142460427E-06     <-- D I
MG         6    0.3088760E-04   0.152487E-02       0.581890819E-07     <-- D I
MG         7    0.1357281E-04   0.879048E-03       0.253213280E-07     <-- D I
MG         8    0.6331592E-05   0.673917E-03       0.116102238E-07     <-- D I
MG Defect correct solution obtained.
MG  - final defect norm:   0.6739E-03
MG  - final error norm :   0.6332E-05
MG  - defect iterations:   8
MG Hartree energy from (\int phi*rho dr):               226.986656
MG Hartree energy from (\int eps (grad phi)^2 dr):      194.087726
MG Discrepancy due to finite box and discretization:    -32.898931 ( -14.49377%)
MG Correction to account for finite box:                 33.298605
MG Remaining discrepancy, due to discretization:          0.399674 (   0.17608%)
============ Calculation of NGWF S^-1 using Hotelling algorithm ================ 
         Iteration  |  Frobenius norm and Maximum abs value    (of I-S*S_n^-1)   
               1       0.23752493E-01     0.22320170E-02
               2       0.11951201E-03     0.13109254E-04
               3       0.55504189E-08     0.55007776E-09
               4       0.81854968E-14     0.19984014E-14
================================================================================
RMS gradient                =       0.00077073444445
Trial step length           =               0.393148
Gradient along search dir.  =         -0.19211278438
Functional at step 0        =     -52.35019397107196
Functional at step 1        =     -52.40263977731458
Functional predicted        =     -52.41197762986756
Selected quadratic step     =               0.643202
--------------------------- NGWF line search finished --------------------------
                                               
WARNING: maximum number of NGWF CG iterations (   3) exceeded!

                    <<<<< CALCULATION SUMMARY >>>>>
|ITER|    RMS GRADIENT   |     TOTAL ENERGY    |   step   |     Epredicted      
   1     0.00567286714454    -48.28047269488396   0.740404    -52.13340048176683
   2     0.00201815025137    -52.01008647928123   0.513280    -52.34813433295508
   3     0.00077073444445    -52.35019397107196  <-- CG                         
 
<QC>        [NGWF iterations]:        3
<QC>           [total_energy]:      -52.35019397
<QC>                     [F0]:      -52.35019397
<QC>                     [F1]:      -52.40263978
<QC>                     [F2]:        0.00000000
<QC>   [predicted_functional]:      -52.41197763
<QC>           [rms_gradient]:        0.000770734444
<QC>                 [G_init]:       -0.192112784378
<QC>        [quadratic_coeff]:        0.643202
<QC>            [cubic_coeff]:        0.000000
<QC>               [cg_coeff]:        0.000000
<QC>           [trial_length]:        0.393148

------------------------------ TIMING INFORMATION ------------------------------
TOTAL TIME:     559.813s on     4 node(s)

Job completed: 27-06-2011 15:33 (+0100)

