 +---------------------------------------------------------------+
 |                                                               |
 |        ####### #     # ####### ####### ####### ######         |
 |        #     # ##    # #          #    #       #     #        |
 |        #     # # #   # #          #    #       #     #        |
 |        #     # #  #  # #####      #    #####   ######         |
 |        #     # #   # # #          #    #       #              |
 |        #     # #    ## #          #    #       #              |
 |        ####### #     # #######    #    ####### #              |
 |                                                               |
 |        Linear-Scaling Ab Initio Total Energy Program          |
 |                                                               |
 |          Release for academic collaborators of ODG            |
 |                                              Version 3.0      |
 |                                                               |
 +---------------------------------------------------------------+
 |                                                               |
 |  Authors:                                                     |
 |  Peter D. Haynes, Nicholas D. M. Hine, Arash. A. Mostofi,     |
 |  Mike C. Payne and Chris-Kriton Skylaris                      |
 |                                                               |
 |  Contributors:                                                |
 |  P. W. Avraam, S. J. Clark, O. Dieguez, S. M. M. Dubois,      |
 |  J. Dziedzic, H. H. Helal, Q. O. Hill, D. D. O`Regan,         |
 |  C. J. Pickard, M. I. J. Probert, L. Ratcliff, M. Robinson    |
 |  and A. Ruiz Serrano                                          |
 |                                                               |
 |                                   Copyright (c) 2004-2011     |
 |                                                               |
 |  Please cite:                                                 |
 |  "Introducing ONETEP: Linear-scaling density functional       |
 |   simulations on parallel computers".                         |
 |   C.-K. Skylaris, P. D. Haynes, A. A. Mostofi, M. C. Payne.   |
 |   J. Chem. Phys. 122 084119 (2005).                           |
 |                                                               |
 |          in all publications arising from your use of ONETEP. |
 |                                                               |
 +---------------------------------------------------------------+
 |                                                               |
 |   ONETEP is based on developments described in the following  |
 |   publications:                                               |
 |                                                               |
 |  "Nonorthogonal generalized Wannier function pseudopotential  |
 |   plane-wave method".                                         |
 |   C.-K. Skylaris, A. A. Mostofi, P. D. Haynes, O. Dieguez,    |
 |   M. C. Payne.                                                |
 |   Phys. Rev. B 66 035119 (2002).                              |
 |                                                               |
 |  "Preconditioned iterative minimization for linear-scaling    |
 |   electronic structure calculations".                         |
 |   A. A. Mostofi, P. D. Haynes, C.-K. Skylaris, M. C. Payne.   |
 |   J. Chem. Phys. 119(17), pp.8842-8848 (2003).                |
 |                                                               |
 |  "Total-energy calculations on a real space grid with         |
 |   localized functions and a plane-wave basis".                |
 |   A. A. Mostofi, C.-K. Skylaris, P. D. Haynes, M. C. Payne.   |
 |   Comput. Phys. Commun. 147, pp.788-802 (2002).               |
 |                                                               |
 |  "Accurate kinetic energy evaluation in electronic structure  |
 |   calculations with localized functions on real space grids"  |
 |   C.-K. Skylaris, A. A. Mostofi, P. D. Haynes, C. J. Pickard, |
 |   M. C. Payne.                                                |
 |   Comput. Phys. Commun. 140, pp.315-322 (2001).               |
 |                                                               |
 +---------------------------------------------------------------+

Job started: 27-05-2011 23:29 (+0100)

Running on     4 processors.

Reading parameters from file "xyz-periodic_silanes.dat" ...... done
Reading geometry and species blocks from file "xyz-periodic_silanes.dat" ...    
... done
-------------------------------------------------------------------------------
---------------------------- RUN-TIME PARAMETERS ------------------------------
-------------------------------------------------------------------------------
task                       : SINGLEPOINT *! Type of calculation (String)        
cutoffenergy               : 3.67489942245322      hartree *! Plane wave kineti 
kernelcutoff               : 18.0000000000000 *! Density kernel radius in Bohr  
xcfunctional               : LDA *! Exchange-correlation functional (String)    
libxcxfuncid               : 0 *! Functional identifier for which exchange func 
libxccfuncid               : 0 *! Functional identifier for which correlation f 
charge                     : 0.000000000000000E+000 *! The total charge of the  
spin                       : 0 *! Total spin of system (Integer)                
spinpolarized              : F *! Switch for spin polarization (Boolean)        
spinpolarised              : F *! Switch for spin polarisation (Boolean)        
constantefield             : 0.0 0.0 0.0 *! Cartesian coordinates of constant e 
fftboxpref                 : 0 0 0 *! Preferred FFT box dimensions (String)     
ppdnpoints                 : 0 0 0 *! PPD edge length in grid points for each l 
psincspacing               : 0.0 0.0 0.0 *! PSINC grid spacing in atomic units  
oldinput                   : F *! Read old-format input file (Boolean)          
develcode                  : *! For development code only (String)              
nnho                       : F *! Initialise NGWFs to nonorthogonal natural hyb 
ngwfhalo                   : -1.00000000000000 *! Halo extension to NGWF radii  
nonscforces                : F *! Include non self-consistent forces due to NGW 
maxitpalsermano            : -1 *! Maximum number of iterations for Palser-Mano 
maxitpen                   : 3 *! Max number of penalty functional iterations ( 
penparam                   : 4.00000000000000 *! Penalty functional parameter ( 
minitlnv                   : 3 *! Min number of LNV iterations (Integer)        
maxitlnv                   : 8 *! Max number of LNV iterations (Integer)        
maxitlnvcoarse             : 0 *! Max number of low-accuracy LNV iterations (In 
lnvthresholdorig           : 1.000000000000000E-009 *! LNV convergence threshol 
lnvcgtype                  : LNV_FLETCHER *! Type of CG coefficient for LNV den 
lnvcgmaxstep               : 3.00000000000000 *! Maximum length of trial step f 
exactlnv                   : T *! Use original LNV algorithm (Boolean)          
oldlnv                     : F *! Use LNV algorithm backwards compatible pre De 
lnvchecktrialsteps         : F *! Check stability of kernel at each trial step  
kerfix                     : 1 *! Density kernel fixing approach (Integer)      
maxitkernelfix             : 3 *! Maximum # iterations of Penalty Functional id 
initialdensrealspace       : F *! Construct initial density in real space from  
kerneldiis                 : F *! Use kernel DIIS in the inner loop (Boolean)   
kerneldiistype             : P *! Density mixing method (String)                
kerneldiismax              : 10 *! Max number of kernels saved during kernel DI 
kerneldiismaxit            : 25 *! Max number of kernel DIIS iterations (Intege 
kerneldiisthres            : 1.000000000000000E-009 *! Density mixing convergen 
kerneldiisliter            : 5 *! Number of linear mixing iterations (Integer)  
kerneldiiscin              : 0.900000000000000 *! Coefficient for the input ker 
kerneldiiscriteria         : 1000 *! Density mixing convergence criteria (Strin 
maxitngwfcg                : 35 *! Max number of NGWF conjugate gradients (CG)  
ngwfcgtype                 : NGWF_FLETCHER *! Type of CG coefficient for NGWF o 
ngwfcgmaxstep              : -8.00000000000000 *! Maximum length of trial step  
eleccgmax                  : 5 *! Number of NGWF iterations to reset CG (Intege 
precondscheme              : TETER *! Recip-space preconditioning scheme (Strin 
kzero                      : 1.50000000000000 *! KE preconditioning parameter ( 
rprecond                   : 2.00000000000000 *! Radial cut-off for real-space  
precondrecip               : T *! Recip-space KE preconditioning (Boolean)      
precondreal                : F *! Real-space KE preconditioning (Boolean)       
smoothscheme               : NONE *! Smoothing scheme for the NGWF gradients at 
rsmooth                    : 1.50000000000000      bohr *! Radius of the unshav 
ksmooth                    : 5.00000000000000 *! Characteristic wavelength of t 
occmix                     : 0.250000000000000 *! Mix fraction of occupancy pre 
kernelupdate               : F *! Update density kernel during NGWF line search 
kernelchristoffelupdate    : F *! Update density kernel during NGWF line search 
maxithotelling             : 50 *! Number of Hotelling iteration per NGWF chang 
maxresidhotelling          : 1.000000000000000E-012 *! Max allowed value in Hot 
maxitngwfdiis              : 0 *! Max number of NGWF DIIS steps (Integer)       
ngwfdiissize               : 4 *! Max size of the DIIS iterative subspace (Inte 
ngwfdiisreset              : 8 *! Max number of iteration for the resetting of  
ngwfdiismaxstep            : 2.00000000000000 *! Max length of trial step for N 
ngwfthresholdorig          : 2.000000000000000E-006 *! NGWF convergence thresho 
elecenergytol              : -1.000000000000000E-003 hartree *! Tolerance on to 
elecforcetol               : -1.000000000000000E-003 ha/bohr *! Tolerance on ma 
ngwfmaxgrad                : -2.000000000000000E-005 *! Maximum permissible val 
deltaeconv                 : T *! Use consecutive energy gains as a criterion f 
locpotintbatchsize         : 10 *! Size of NGWF in fftbox batch for locpot inte 
kineticintbatchsize        : 10 *! Size of NGWF in fftbox batch for kinetic int 
densitybatchsize           : 10 *! Size of NGWF in fftbox batch for charge dens 
ngwfgradbatchsize          : 10 *! Size of NGWF in fftbox batch for NGWF gradie 
densethreshold             : 0.400000000000000 *! Threshold for matrix segment  
commsgroupsize             : 4 *! Number of nodes in a group (determines comms  
ovlpfornonlocal            : F *! Overlap sparsity for nonlocal (Boolean)       
usespacefillingcurve       : T *! Re-arrange atoms according to space-filling c 
corehamdenskernguess       : T *! Initial guess for density kernel from core Ha 
checkatoms                 : T *! Check atoms on top of each other (Boolean)    
locpotscheme               : FULL *! Scheme for evaluating local potential matr 
smoothprojectors           : -0.400000000000000 *! Halfwidth of Gaussian filter 
smoothlocpspot             : -0.400000000000000 *! Halfwidth of Gaussian filter 
oddpsincgrid               : F *! Force odd number of points in simcell psinc g 
evenpsincgrid              : F *! Force even number of points in simcell psinc  
realspaceprojectors        : F *! Whether to evaluate and store projectors in r 
outputdetail               : VERBOSE *! Level of output detail (String)         
pawoutputdetail            : DEFAULT *! Level of output detail for PAW: BRIEF,  
timingslevel               : 0 *! Level of timings output: 0(none) 1(nodes summ 
writeparams                : T *! Output runtime parameters at startup (Boolean 
writeforces                : F *! Write ionic forces (Boolean)                  
writepositions             : T *! Write ionic positions each geometry or MD ste 
writexyz                   : F *! Output coordinates in .xyz file (Boolean)     
printqc                    : T *! Print Quality Control information (Boolean)   
cubeformat                 : F *! Allow .cube format for plot outputs (Boolean) 
dxformat                   : F *! Allow .dx format for plot outputs (Boolean)   
dxformatcoarse             : F *! Output only points on the coarse grid (Boolea 
dxformatdigits             : 7 *! Number of significant digits in .dx output (I 
grdformat                  : T *! Allow .grd format for plot outputs (Boolean)  
writedensityplot           : T *! Write the charge density in plotting format ( 
writengwfplot              : F *! Write NGWFs in plotting format (Boolean)      
writengwfgradplot          : F *! Write NGWF Gradients in plotting format (Bool 
writengwfradial            : F *! Write NGWFs radial distributions (Boolean)    
writengwfgradradial        : F *! Write NGWFs gradients radial distributions (B 
writeradialstep            : 5.000000000000000E-003 bohr *! Define the grid ste 
writeradialsmear           : 1.000000000000000E-002 bohr *! Define the gaussian 
readdenskern               : F *! Read density kernel restart information (Bool 
writedenskern              : F *! Write density kernel restart information (Boo 
readtightboxngwfs          : F *! Read in universal tightbox NGWFs restart info 
writetightboxngwfs         : F *! Write in universal tightbox NGWFs restart inf 
writeconvergeddkngwfs      : F *! Only write Density Kernel and NGWFs upon conv 
readswngwfs                : F *! Read NGWFs restart information in spherical w 
writeswngwfs               : F *! Write NGWFs restart information in spherical  
writemaxl                  : 3 *! Maximum angular momentum number when writing  
readmaxl                   : 3 *! Maximum angular momentum number when reading  
extransw                   : 0 *! Maximum number of zeros of the sph Bessel fun 
paw                        : F *! Uses a PAW construction to find correct core  
finegridscale              : 2.00000000000000 *! Ratio of size of fine grid to  
dblgridscale               : 2.00000000000000 *! Ratio of charge density / pote 
augfuncsrecip              : T *! Construct Augmentation functions in recip spa 
dispersion                 : 0 *! Select dispersion correction (Integer)        
vdwdcoeff                  : -1.00000000000000 *! Replacement VDW damping coeff 
hubbardmaxiter             : 0 *! Maximum number of DFT+U projector optimisatio 
hubbardenergytol           : 1.000000000000000E-008 hartree *! Energy tolerance 
hubbardconvwin             : 2 *! Energy convergence window when using DFT+U pr 
hubbardprojmixing          : 0.000000000000000E+000 *! Proportion of old Hubbar 
hubbardfunctional          : 1 *! DFT+U energy functional to use (Integer)      
hubbardtensorcorr          : 1 *! DFT+U projector tensorial correction to use ( 
hubbardngwfspinthreshold   : 2.000000000000000E-005 *! NGWF RMS  gradient thres 
coulombcutoffradius        : 0.000000000000000E+000 *! Radius of sphere or cyli 
coulombcutofflength        : 0.000000000000000E+000 *! Length of cylinder or wi 
coulombcutofftype          : NONE *! Type of cutoff coulomb interaction: NONE,  
coulombcutoffwriteint      : F *! Write real-space cutoff Coulomb interaction s 
pbccorrectioncutoff        : 0.000000000000000E+000 *! alpha*L cutoff parameter 
doproperties               : F *! Allow calculation of properties (Boolean)     
numeigenvalues             : 10 *! Number of energy and occupancy eigenvalues t 
homodensplot               : -1 *! Number of squared MOs to plot from HOMO and  
lumodensplot               : -1 *! Number of squared MOs to plot from LUMO and  
homoplot                   : 5 *! Number of MOs to plot from HOMO and lower (In 
lumoplot                   : 5 *! Number of MOs to plot from LUMO and higher (I 
dossmear                   : 3.674932438755288E-003 hartree *! Half width of sm 
ldossmear                  : 3.674932438755288E-003 hartree *! Lorentzian broad 
popncalculate              : F *! Allow population analysis (Boolean)           
popnbondcutoff             : 5.66917840375065      bohr *! Bond length cutoff f 
ngwfanalysis               : F *! Perform NGWF analysis (Boolean)               
polarisationcalculate      : F *! Allow calculation of polarisation (Boolean)   
spreadcalculate            : F *! Calculate spread of NGWFs (Boolean)           
geommodulusest             : 1.700000000000000E-002 ha/bohr**3 *! The estimated 
geomfrequencyest           : 7.600000000000000E-003 hartree *! The estimated av 
geomenergytol              : 1.000000000000000E-006 hartree *! Geometry optimiz 
geomforcetol               : 2.000000000000000E-003 ha/bohr *! Geometry optimiz 
geomdisptol                : 5.000000000000000E-003 bohr *! Geometry optimizati 
geommaxiter                : 50 *! Maximum number of geometry optimization iter 
geomconvergencewin         : 2 *! Geometry optimization convergence tolerance w 
geomcontinuation           : F *! Read information for continuation of a previo 
geombackupiter             : 1 *! Number of geometry optimisation iterations be 
geomresetdkngwfsiter       : 6 *! Number of geom iterations between resets of k 
geomreusedkngwfs           : T *! Re-use density kernel and NGWFs during geomet 
geomprintinvhessian        : F *! Write inverse Hessian to standard output (Boo 
geommethod                 : CARTESIAN *! Method for geometry optimization (Str 
tssearchmethod             : LSTQST *! Specifies method to be used for TS searc 
tssearchlstqstprotocol     : LSTMAXIMUM *! Specifies LSTQST protocol (String)   
tssearchqstmaxiter         : 5 *! Specifies maximum number of QST steps (Intege 
tssearchcgmaxiter          : 20 *! Specifies maximum number of CG steps (Intege 
tssearchforcetol           : 5.000000000000000E-003 ha/bohr *! Force tolerance  
tssearchdisptol            : 1.000000000000000E-002 bohr *! Displacement tolera 
mddeltat                   : 40.0000000000000      aut *! Molecular dynamics ti 
mdnumiter                  : 100 *! Maximum number of molecular dynamics iterat 
mdtemperature              : 9.500000000000000E-004 hartree *! Temperature for  
mdalgorithm                : LEAPFROGVERLET *! Integration algorithm for molecu 
mdthermostat               : NONE *! Thermostat for molecular dynamics (String) 
mdcollisionfrequency       : 0.152000000000000      hartree *! Collision freque 
mixdenskern                : 0 *! Number of coefficients used to build new gues 
mixngwfs                   : 0 *! Number of coefficients used to build new gues 
condreaddenskern           : F *! Read in conduction density kernel (Boolean)   
condreadtightboxngwfs      : F *! Read in universal tightbox conduction NGWFs ( 
condfixedshift             : F *! Fixed projected conduction Hamiltonian shift  
condcalcmaxeigen           : T *! Calculate maximum conduction Hamiltonian eige 
condnumstates              : 0 *! Number of conduction states to be optimised f 
condkernelcutoff           : 1000.00000000000 *! Conduction density kernel radi 
condinitshift              : 0.000000000000000E+000 *! Initial shifting factor  
condshiftbuffer            : 0.100000000000000 *! Additional buffer for updatin 
condnumextrastates         : 0 *! Number of extra conduction states for initial 
condnumextraits            : 0 *! Number of NGWF iterations with extra conducti 
condplotjointorbitals      : T *! Plot orbitals in the joint basis following a  
condplotvcorbitals         : T *! Plot orbitals in the val and cond NGWF basis  
condcalcopticalspectra     : F *! Calculate matrix elements for optical absorpt 
condspeccalcmommatels      : T *! Calculate momentum matrix elements (default t 
condspeccalcnonloccomm     : T *! Calculate nonlocal commutator for momentum ma 
condspeccontderiv          : T *! Calculate non-local commuator using continuou 
condspecnonloccommshift    : 1.000000000000000E-004 *! Finite difference shift  
bskpointpathspacing        : 0.188972700000000      1/bohr *! K-point spacing a 
bsnumeigenvalues           : -1 *! Num of energy and occ. eigenvalues to print  
bsunfold                   : 0 0 0 *! Number of times to unfold Brillouin zone  
bsmethod                   : TB *! Method to use: 'KP' or 'TB' (String)         
dotddft                    : F *! Allow Time-Dependent DFT calculation (Boolean 
tddftmaximumenergy         : 1.00000000000000      hartree *! Desired maximum o 
tddftresolution            : 1.000000000000000E-003 hartree *! Desired resoluti 
tddftpropagationmethod     : CRANKNICHOLSON *! Method used to integrate von Neu 
tddftsparsitylevel         : 0 *! Matrix sparsity when computing propagators e. 
tddfttammdancoff           : F *! Invoke Tamm-Dancoff decoupling approximation  
tddftdipolekickstrength    : 0.0 0.0 0.0 *! Maximum allowed phase shift in TDDF 
tddftxcfunctional          : LDA *! Exchange-correlation functional for TDDFT ( 
tddfthamiltonianmixing     : 0 *! Order of polynomial extrapolation to H(t + ha 
tddftdamping               : 0.000000000000000E+000 hartree *! Energy smearing  
tddftenforcedidempotency   : F *! Project out at each timestep that part of cha 
tddftmaxithotelling        : 50 *! Number of Hotelling iteration per propagatio 
tddftmaxresidhotelling     : 1.000000000000000E-018 *! Max allowed value in Hot 
tddftinvoverlapexact       : T *! Renew inverse overlap with O N^3 algorithm be 
isimplicitsolvent          : F *! Use implicit solvent? (Boolean)               
issmearedionrep            : F *! Implicit solvent: use smeared ions for electr 
isincludecavitation        : F *! Implicit solvent: include cavitation energy ( 
isdensitythreshold         : 7.800000000000000E-004 *! Implicit solvent: rho_0  
issolvationbeta            : 1.30000000000000 *! Implicit solvent: beta paramet 
isbulkpermittivity         : 1.00000000000000 *! Implicit solvent: eps_inf para 
ismultigriddefecterrortol  : 1.000000000000000E-002 *! Implicit solvent: stop c 
ismultigriderrortol        : 1.000000000000000E-005 *! Implicit solvent: stop c 
issmearedionwidth          : 0.800000000000000 *! Implicit solvent: Width of Ga 
issurfacethickness         : 2.000000000000000E-004 *! Implicit solvent: thickn 
issolventsurfacetension    : 4.762400000000000E-005 ha/bohr**2 *! Implicit solv 
ismultigridmaxiters        : 100 *! Implicit solvent: max number of iterations  
ismultigridnlevels         : 4 *! Implicit solvent: number of levels in multigr 
isdiscretizationorder      : 8 *! Implicit solvent: discretization order (2nd,  
isbccoarseness             : 5 *! Implicit solvent: controls boundary condition 
isbcsurfacecoarseness      : 1 *! Implicit solvent: controls boundary condition 
ischecksolvenergygrad      : F *! Implicit solvent: sanity check the energy gra 
issolvationmethod          : DIRECT *! Implicit solvent: direct or corrective m 
isdielectricmodel          : FIX_INITIAL *! Implicit solvent: how the cavity is 
isdielectricfunction       : FGF *! Implicit solvent: how the cavity is determi 
issolvationoutputdetail    : NONE *! Implicit solvent: controls extra output (S 
openbcionion               : F *! Force open BCs in ion-ion energy (Boolean)    
openbchartree              : F *! Force open BCs in Hartree potential (Boolean) 
openbcpspot                : F *! Force open BCs in local pseudopotential (Bool 
openbcpspotfinetunenptsx   : 100000 *! Open BCs in local pseudo, npts_x paramet 
openbcpspotfinetunealpha   : 0.300000000000000 *! Open BCs in local pseudo, alp 
openbcpspotfinetunef       : -1 *! Open BCs in local pseudo, fineness parameter 
%block positionsabs        : *! Cartesian positions for each atom (Block)       
H        9.147804   38.719248   13.701465                                       
Si       10.784336   38.493172   11.305679                                      
H        9.060027   38.896437    8.996291                                       
H       14.771762   34.387755   13.012591                                       
Si       12.508640   34.334571   11.183770                                      
H       13.656283   33.836927    8.556147                                       
H        8.405915   30.112208    9.873598                                       
Si       10.598274   30.308637   11.777309                                      
H        9.434234   30.170478   14.440965                                       
H        9.006103   22.085760   10.199294                                       
Si       11.206043   22.344955   12.086679                                      
H       10.055893   22.129556   14.751242                                       
H        9.715927   14.135180   10.499781                                       
Si       11.914762   14.411210   12.386066                                      
H       10.767897   14.185847   15.051221                                       
Si       12.727281    6.466327   12.672840                                      
H       10.546420    6.131463   10.775249                                       
H       16.677787    3.041475    9.800635                                       
Si       15.321534    2.808299   12.364879                                      
H       17.304700    3.566708   14.355107                                       
H       15.132808   26.705837   13.398206                                       
Si       12.920889   26.464285   11.522517                                      
H       14.102270   26.218369    8.874310                                       
H       15.801775   18.812349   13.702708                                       
Si       13.596914   18.544422   11.822298                                      
H       14.780839   18.325491    9.172859                                       
Si       14.335786   10.630546   12.118844                                      
H       16.541938   10.923951   13.993929                                       
H       35.755490   28.064238    5.742335                                       
H       35.986715   35.497475    9.842785                                       
H       34.992631   30.587393   19.078153                                       
H       35.416254   39.346567   29.916409                                       
H       29.936052   36.491905   35.803360                                       
H       29.804354   34.147064   42.750585                                       
Si       33.382032   29.670954    5.238052                                      
Si       34.974771   33.354916   11.532325                                      
Si       32.667869   32.278504   18.625641                                      
Si       33.351535   37.611628   28.822762                                      
Si       32.481793   35.113887   35.504354                                      
Si       32.305293   32.738123   42.271701                                      
H       31.259715   27.799748    4.557242                                       
H       37.201861   31.608509   12.210024                                       
H       30.462507   30.577878   17.781019                                       
H       30.797788   39.007108   28.834916                                       
H       34.645004   36.882752   36.317237                                       
H       34.541346   34.502268   42.869194                                       
H       37.199860   32.318618    1.362768                                       
H       31.137177   28.760471   10.772584                                       
H       31.309319   36.785545   14.873300                                       
H       30.644332   31.789515   24.282582                                       
H       35.480948   32.385508   31.011182                                       
H       34.953743   29.988833   37.573073                                       
Si       34.314050   32.191652    1.716483                                      
Si       31.959635   31.073398    9.209552                                      
Si       33.653802   35.138928   15.384365                                      
Si       31.417767   33.984711   22.535570                                      
Si       33.040811   33.948765   31.277820                                      
Si       32.504116   31.490172   38.036163                                      
H       33.279716   34.877820    2.145195                                       
H       29.660004   32.821207    8.854585                                       
H       35.761231   36.849160   16.434597                                       
H       29.100062   35.701507   22.148276                                       
H       30.767231   32.369380   30.380314                                       
H       30.203148   29.833822   37.379511                                       
H       30.958517   28.327588   50.275070                                       
Si       32.468976   30.514081   49.088943                                      
H       30.532240   32.663161   49.404616                                       
H       30.210115   27.461564   44.373870                                       
Si       32.508955   29.173611   44.877226                                      
H       34.961404   27.697447   44.352279                                       
Si       34.420055   36.462786   24.663680                                      
H       34.866269   38.891672   23.124023                                       
H       36.934071   35.006888   24.834625                                       
H       43.764438   23.519736   22.663904                                       
H       36.435568   21.761240   20.805056                                       
H       28.725712   20.010246   20.682592                                       
H       21.203550   18.939524   22.118038                                       
H       14.258571   18.848970   24.058312                                       
H        7.790419   19.525230   25.355270                                       
Si       42.621155   24.980879   24.906025                                      
Si       35.727002   23.363597   23.128744                                      
Si       28.608077   21.773033   22.995142                                      
Si       21.631481   20.766537   24.342456                                      
Si       14.924476   20.623410   26.266721                                      
Si        8.308904   21.252418   27.639374                                      
Si        1.664672   22.414698   27.813741                                      
H       42.353959   27.807633   24.267895                                       
H       35.310333   26.146751   22.387408                                       
H       28.126191   24.523610   22.175844                                       
H       21.252354   23.518607   23.475559                                       
H       14.808085   23.387980   25.365196                                       
H        8.552931   24.003007   26.720761                                       
H        0.936275   20.087202   26.225868                                       
H       43.596955   23.055236   30.517065                                       
H       37.917049   24.469706   28.628228                                       
H       31.985758   22.976645   27.834021                                       
H       25.957513   21.804327   28.422836                                       
H       19.615668   21.358313   30.033432                                       
H       12.699416   21.740864   31.819322                                       
H        5.291014   22.809373   32.690351                                       
Si       45.117863   24.517372   28.512536                                      
Si       38.852730   23.120474   26.225478                                      
Si       32.348537   21.565330   25.314950                                      
Si       25.701089   20.282820   25.955368                                      
Si       18.985503   19.720328   27.712002                                      
Si       12.068091   20.009628   29.566903                                      
Si        4.915934   21.006889   30.436575                                      
H       45.780305   27.143296   29.577821                                       
H       39.317543   20.312459   26.832223                                       
H       32.929114   18.767507   25.866543                                       
H       26.216000   17.468703   26.488990                                       
H       19.301682   16.899535   28.354103                                       
H       12.099290   17.212411   30.369239                                       
H        4.601451   18.258835   31.341251                                       
H       15.521176   10.422969    9.469145                                       
H       11.588724    6.212930   15.339039                                       
H        2.728057   24.319559   25.887643                                       
Si       13.339487   41.574054   11.256291                                      
Si       14.351607   45.676029   12.803837                                      
H       12.470892   45.825790   15.019604                                       
H       16.554553   44.323424   14.140486                                       
H       15.894359   40.208005   11.531391                                       
H       13.048165   41.673626    8.362443                                       
%endblock positionsabs     : *! Cartesian positions for each atom (Block)       
%block latticecart         : *! The simulation cell lattice vectors (Block)     
47.243157825    0.000000000    0.000000000                                      
0.000000000   47.243157825    0.000000000                                       
0.000000000    0.000000000   51.022610451                                       
%endblock latticecart      : *! The simulation cell lattice vectors (Block)     
%block species             : *! Species information (symbol, atomic number, num 
H    H    1    1   5.50                                                         
Si   Si   14   4   6.00                                                         
%endblock species          : *! Species information (symbol, atomic number, num 
%block speciespot          : *! Pseudopotential name for each species (Block)   
H     "../../pseudo/hydrogen_coul.recpot"                                       
Si    "../../pseudo/silicon.recpot"                                             
%endblock speciespot       : *! Pseudopotential name for each species (Block)   
%block speciesatomicset    : *! Atomic set name for each species (Block)        
H   AUTO                                                                        
Si  AUTO                                                                        
%endblock speciesatomicset : *! Atomic set name for each species (Block)        
-------------------------------------------------------------------------------
-------------------------------------------------------------------------------

<<<<<<<<<<<<<<<<<<<<<<<<< Pseudopotential information >>>>>>>>>>>>>>>>>>>>>>>>>
File: ../../pseudo/hydrogen_coul.recpot [ 2001 points up to Gmax=  52.9 (1/bohr)]
  Atomic number:  1;  ionic charge:  1.000000
    Local potential
File: ../../pseudo/silicon.recpot [ 2001 points up to Gmax=  52.9 (1/bohr)]
  Atomic number: 14;  ionic charge:  4.000000
    Shell 1: l = 1; rc = 1.84 bohr
    Shell 2: l = 2; rc = 1.84 bohr
<<<<<<<<<<<<<<<<<<<<<<<<<<<<<<<<<<<<<<< >>>>>>>>>>>>>>>>>>>>>>>>>>>>>>>>>>>>>>>

------------------------- Atom counting information ---------------------------
Symbol    Natoms    Nngwfs    Nprojs
  H         82        82         0
  Si        41       164       328
.......   ......    ......    ......
Totals:    123       246       328
-------------------------------------------------------------------------------
 
Determining parallel strategy ...
... using space-filling curve
... NGWF load balancing: max     63;  min     60;  average     62
... Projector load balancing: max     88;  min     72;  average     82
... done

Calculating Ewald energy ...
              Ewald: real-space energy =     369.486738
        Ewald: reciprocal-space energy =     123.522738
         Ewald: (sum_charge)**2 Energy =     125.523491
         Ewald: (sum_charge**2) Energy =      33.954216
                          Ewald Energy =     333.531768
... FFT-box specified

Basis initialisation ...
... Atom positions lie inside simulation cell
... NGWF spheres initialised
... Projector spheres initialised
... NGWF tight boxes initialised
... NGWF basis size (local,global):      29668    120560
... Tight-boxes gathered
... done

============================== PSINC grid sizes ================================
                      Simulation cell:   33 x  33 x  35
                              FFT-box:   27 x  27 x  27
                                  PPD:   11 x  11 x   5
Grid space d1=  1.431610843182a0 (KE cutoff=   3.70641Eh = 100.85668eV)
Grid space d2=  1.431610843182a0 (KE cutoff=   3.70641Eh = 100.85668eV)
Grid space d3=  1.457788870029a0 (KE cutoff=   3.57450Eh =  97.26697eV)
================================================================================

********************** Fourier parallelisation information *********************
       Coarse grid (whole simulation cell) dimensions:     33    33    35

                 Real-space grid ('12' slabs):
                   Node    0:    8 (from    1 to    8)
                   Node    1:    9 (from    9 to   17)
                   Node    2:    9 (from   18 to   26)
                   Node    3:    9 (from   27 to   35)

                 Reciprocal-space grid ('23' slabs):
                   Node    0:    4 (from    1 to    4)
                   Node    1:    4 (from    5 to    8)
                   Node    2:    5 (from    9 to   13)
                   Node    3:    4 (from   14 to   17)
********************************************************************************

********************** Fourier parallelisation information *********************
       Double grid (whole simulation cell) dimensions:     66    66    70

                 Real-space grid ('12' slabs):
                   Node    0:   17 (from    1 to   17)
                   Node    1:   18 (from   18 to   35)
                   Node    2:   18 (from   36 to   53)
                   Node    3:   17 (from   54 to   70)

                 Reciprocal-space grid ('23' slabs):
                   Node    0:    8 (from    1 to    8)
                   Node    1:    9 (from    9 to   17)
                   Node    2:    9 (from   18 to   26)
                   Node    3:    8 (from   27 to   34)
********************************************************************************

=========================== Sparse matrix information ==========================
                        Overlap matrix filling:  14.89%
                        Density kernel filling:  32.65%
              NGWF-Proj overlap matrix filling:   9.63%
                    Hamiltonian matrix filling:  17.46%
                  NGWF diagonal matrix filling:   1.22%
                             KS matrix filling:  60.64% 
                           KSKS matrix filling:  99.11% 
================================================================================

Sparse matrix initialisation ... done
NGWF initialisation ...... done

============ Calculation of NGWF S^-1 using Hotelling algorithm ================ 
         Iteration  |  Frobenius norm and Maximum abs value    (of I-S*S_n^-1)   
               1       0.14465694E+02     0.98648578E+00
               2       0.13597617E+02     0.97448436E+00
               3       0.12488190E+02     0.95418121E+00
               4       0.11406968E+02     0.92471516E+00
               5       0.10571450E+02     0.89171536E+00
               6       0.98992202E+01     0.85932796E+00
               7       0.91397708E+01     0.82210075E+00
               8       0.82298369E+01     0.77379055E+00
               9       0.71315598E+01     0.69060378E+00
              10       0.55825921E+01     0.55529217E+00
              11       0.34792372E+01     0.36227048E+00
              12       0.13911694E+01     0.15563324E+00
              13       0.24138454E+00     0.29436267E-01
              14       0.15121601E-01     0.15773513E-02
              15       0.12443867E-01     0.15781400E-02
              16       0.12444081E-01     0.15781570E-02
================================================================================
Up spin density kernel initialisation ...... done
   Initial electron number for spin 1:     246.00000000
     Final electron number for spin 1:     246.00000000
................................................................................
<<<<<<<<<<<<<<<< Penalty functional density kernel optimisation >>>>>>>>>>>>>>>>
~~~~~~~~~~~~~~~~~~~~~~~~~~~~~~~~~~~~~~~~~~~~~~~~~~~~~~~~~~~~~~~~~~~~~~~~~~~~~~~~
iter|       energy      |   rms grad  |  commutator |LScoef|CGcoef|      Ne    |
      Q0=E0+P0:    -197.766774623842=   -197.780272984041+      0.013498360199
    Trial step:       1.000000000000
            G0:     -55.054932503130
WARNING: minimum value of charge density: -0.0250
      Q1=E1+P1:     282.563183815596=   -251.943148065100+    534.506331880696
Quadratic term:    -535.384890942568
   Linear term:     -55.054932503130
  Optimal step:       0.051416217972
 Predicted min:    -199.182132828846
    !!! Quadratic minimum step length accepted !!!
 1   -197.78027298404061 0.05278428549 0.04104996185 0.0514  0.000  246.00000000
      Q0=E0+P0:    -199.985687099298=   -200.592902516239+      0.607215416941
    Trial step:       0.226751445358
            G0:      -0.594525714569
      Q1=E1+P1:    -200.030597334881=   -200.761040337030+      0.730443002149
Quadratic term:      -0.089899329498
   Linear term:      -0.134809565081
  Optimal step:       0.170013858284
 Predicted min:    -200.036225904589
    !!! Quadratic minimum step length accepted !!!
 2   -200.59290251623895 0.02955846059 0.03991803137 0.1700 -0.545  246.00000000
      Q0=E0+P0:    -200.036262791109=   -200.720277503430+      0.684014712321
    Trial step:       0.196343800760
            G0:     -18.479439686649
      Q1=E1+P1:    -199.944228286105=   -206.971737175640+      7.027508889535
Quadratic term:      -3.720357928989
   Linear term:      -3.628323423985
  Optimal step:       0.095743316241
 Predicted min:    -200.920904210047
    !!! Quadratic minimum step length accepted !!!
 3   -200.72027750342974 0.03058143153 0.03646198617 0.0957  3.131  246.00000000

======================== Penalty functional minimisation =======================
   Final total energy     :    -203.778983067051
   Final penalty energy   :       2.804773956685
   RMS occupancy error    :       0.053389
   Occupancy bounds       : [-0.073, 1.080]
================================================================================

Finished density kernel iterations (   3)

################################################################################
########################### NGWF CG iteration  001 #############################
################################################################################
****** Reciprocal space K.E. preconditioning with k_zero =  1.5000 a0^-1 *******
   Initial electron number for spin 1:     246.00000000
     Final electron number for spin 1:     246.00000000

=================== Penalty functional idempotency correction ==================
 RMS occupancy error at iteration   1:  0.053389 (step -0.4250 Ne1=    246.0000)
 RMS occupancy error at iteration   2:  0.002059 (step -0.5198 Ne1=    246.0000)
 RMS occupancy error at iteration   3:  0.000673 (step -1.1021 Ne1=    246.0000)
            Final RMS occupancy error   :  0.000544 (Ne1=    246.0000)
               Final occupancy bounds   : [ -0.0006,  1.0013]
================================================================================

................................................................................
<<<<<<<<<<<<<< LNV (Original version) density kernel optimisation >>>>>>>>>>>>>>
~~~~~~~~~~~~~~~~~~~~~~~~~~~~~~~~~~~~~~~~~~~~~~~~~~~~~~~~~~~~~~~~~~~~~~~~~~~~~~~~
iter|       energy      |  rms DeltaK |  commutator |LScoef|CGcoef|      Ne    |
      ideal mu1:      -0.330713437042
             Q0:    -197.951587638926
             G0:      -0.208269905638
   RMS gradient:       0.003246532763
     Trial step:       0.500000000000
             Q1:    -198.014972365465
 Quadratic coef:       0.040750226280
 Linear coef   :      -0.104134952819
           Qmin:    -198.018115419190
Quadratic minimum step length (  0.638861193698) accepted
    Initial Ne1:     246.03833166
      Final Ne1:     246.00000000

=================== Penalty functional idempotency correction ==================
 RMS occupancy error at iteration   1:  0.002252 (step -0.3654 Ne1=    246.0000)
 RMS occupancy error at iteration   2:  0.001405 (step -0.8090 Ne1=    246.0000)
 RMS occupancy error at iteration   3:  0.000996 (step -0.5783 Ne1=    246.0000)
            Final RMS occupancy error   :  0.000561 (Ne1=    246.0000)
               Final occupancy bounds   : [ -0.0004,  1.0025]
================================================================================

 1   -197.95158763892599 0.00000000000 0.02342991459 0.6389  0.000  246.00000000
      ideal mu1:      -0.318284823334
             Q0:    -198.017931776254
             G0:      -0.014891054804
   RMS gradient:       0.000856174239
     Trial step:       0.565181914828
             Q1:    -198.022898865871
 Quadratic coef:       0.003449065250
 Linear coef   :      -0.008416154868
           Qmin:    -198.023065896488
Quadratic minimum step length (  0.689557630603) accepted
    Initial Ne1:     246.00730132
      Final Ne1:     246.00000000

=================== Penalty functional idempotency correction ==================
 RMS occupancy error at iteration   1:  0.002394 (step -0.3668 Ne1=    246.0000)
 RMS occupancy error at iteration   2:  0.001603 (step -0.9098 Ne1=    246.0000)
 RMS occupancy error at iteration   3:  0.001039 (step -0.5191 Ne1=    246.0000)
            Final RMS occupancy error   :  0.000565 (Ne1=    246.0000)
               Final occupancy bounds   : [ -0.0005,  1.0014]
================================================================================

 2   -198.01793177625370 0.00263905859 0.00920334971 0.6896  0.070  246.00000000
      ideal mu1:      -0.318711295451
 3   -198.02284141448769 0.00055957491 0.00672861355 0.0000  0.000  246.00000000
Finished density kernel iterations (   3)

           ........................................................
           | *** NGWF optimisation not converged ***              |
           | RMS NGWF gradient =    0.03698018824363              |
           | Criteria not satisfied:                              |
           | -> RMS NGWF gradient higher than set threshold.      |
           ========================================================

------------------------------- NGWF line search -------------------------------
============ Calculation of NGWF S^-1 using Hotelling algorithm ================ 
         Iteration  |  Frobenius norm and Maximum abs value    (of I-S*S_n^-1)   
               1       0.89615566E+00     0.75545666E-01
               2       0.72574775E-01     0.69613315E-02
               3       0.18988914E-01     0.22319337E-02
               4       0.18996317E-01     0.22338258E-02
================================================================================
============ Calculation of NGWF S^-1 using Hotelling algorithm ================ 
         Iteration  |  Frobenius norm and Maximum abs value    (of I-S*S_n^-1)   
               1       0.30938443E+00     0.32676853E-01
               2       0.18688603E-01     0.20156920E-02
               3       0.16497487E-01     0.20064084E-02
               4       0.16497591E-01     0.20064241E-02
================================================================================
RMS gradient                =       0.03698018824363
Trial step length           =               0.122474
Gradient along search dir.  =        -94.07405358145
Functional at step 0        =    -198.02284141448769
Functional at step 1        =    -201.02347847221398
Functional predicted        =    -201.91758315023677
Selected quadratic step     =               0.082802
Conjugate gradients coeff.  =               0.000000
--------------------------- NGWF line search finished --------------------------
                                               

################################################################################
########################### NGWF CG iteration  002 #############################
################################################################################
****** Reciprocal space K.E. preconditioning with k_zero =  1.5000 a0^-1 *******
   Initial electron number for spin 1:     248.26356182
     Final electron number for spin 1:     246.00000000

=================== Penalty functional idempotency correction ==================
 RMS occupancy error at iteration   1:  0.010592 (step -0.4771 Ne1=    246.0000)
 RMS occupancy error at iteration   2:  0.000714 (step -0.5201 Ne1=    246.0000)
 RMS occupancy error at iteration   3:  0.000616 (step -1.1529 Ne1=    246.0000)
            Final RMS occupancy error   :  0.000609 (Ne1=    246.0000)
               Final occupancy bounds   : [ -0.0005,  1.0012]
================================================================================

................................................................................
<<<<<<<<<<<<<< LNV (Original version) density kernel optimisation >>>>>>>>>>>>>>
~~~~~~~~~~~~~~~~~~~~~~~~~~~~~~~~~~~~~~~~~~~~~~~~~~~~~~~~~~~~~~~~~~~~~~~~~~~~~~~~
iter|       energy      |  rms DeltaK |  commutator |LScoef|CGcoef|      Ne    |
      ideal mu1:      -0.320123678615
             Q0:    -201.910854846892
             G0:      -0.578356540634
   RMS gradient:       0.005410088326
     Trial step:       0.624279986904
             Q1:    -202.135969658577
 Quadratic coef:       0.135941601927
 Linear coef   :      -0.361056413612
           Qmin:    -202.150593330113
Quadratic minimum step length (  0.829033533391) accepted
    Initial Ne1:     245.99312943
      Final Ne1:     246.00000000

=================== Penalty functional idempotency correction ==================
 RMS occupancy error at iteration   1:  0.004440 (step -0.4122 Ne1=    246.0000)
 RMS occupancy error at iteration   2:  0.002177 (step -0.9713 Ne1=    246.0000)
 RMS occupancy error at iteration   3:  0.001156 (step -0.4628 Ne1=    246.0000)
            Final RMS occupancy error   :  0.000751 (Ne1=    246.0000)
               Final occupancy bounds   : [ -0.0009,  1.0025]
================================================================================

 1   -201.91085484689231 0.00000000000 0.04802027139 0.8290  0.000  246.00000000
      ideal mu1:      -0.312201662383
             Q0:    -202.153073130860
             G0:      -0.045739673615
   RMS gradient:       0.001496180580
     Trial step:       0.719408815187
             Q1:    -202.168235842240
 Quadratic coef:       0.017742813022
 Linear coef   :      -0.032905524403
           Qmin:    -202.168329639718
Quadratic minimum step length (  0.667101780706) accepted
    Initial Ne1:     245.98286152
      Final Ne1:     246.00000000

=================== Penalty functional idempotency correction ==================
 RMS occupancy error at iteration   1:  0.003180 (step -0.3645 Ne1=    246.0000)
 RMS occupancy error at iteration   2:  0.002036 (step -0.8319 Ne1=    246.0000)
 RMS occupancy error at iteration   3:  0.001403 (step -0.5420 Ne1=    246.0000)
            Final RMS occupancy error   :  0.000818 (Ne1=    246.0000)
               Final occupancy bounds   : [ -0.0007,  1.0026]
================================================================================

 2   -202.15307313085967 0.00334147784 0.01316673286 0.6671  0.076  246.00000000
      ideal mu1:      -0.316706167391
 3   -202.16827964954999 0.00110169896 0.00859283708 0.0000  0.000  246.00000000
Finished density kernel iterations (   3)

           ........................................................
           | *** NGWF optimisation not converged ***              |
           | RMS NGWF gradient =    0.00814398087500              |
           | Criteria not satisfied:                              |
           | -> RMS NGWF gradient higher than set threshold.      |
           ========================================================

------------------------------- NGWF line search -------------------------------
============ Calculation of NGWF S^-1 using Hotelling algorithm ================ 
         Iteration  |  Frobenius norm and Maximum abs value    (of I-S*S_n^-1)   
               1       0.27941927E+00     0.23342263E-01
               2       0.20702779E-01     0.23640607E-02
               3       0.20404656E-01     0.23837101E-02
               4       0.20405117E-01     0.23836823E-02
================================================================================
============ Calculation of NGWF S^-1 using Hotelling algorithm ================ 
         Iteration  |  Frobenius norm and Maximum abs value    (of I-S*S_n^-1)   
               1       0.52318816E-01     0.41412009E-02
               2       0.21153503E-01     0.24512562E-02
               3       0.21169032E-01     0.24522830E-02
================================================================================
RMS gradient                =       0.00814398087500
Trial step length           =               0.100703
Gradient along search dir.  =         -4.78891250532
Functional at step 0        =    -202.16827964954999
Functional at step 1        =    -202.44397267610597
Functional predicted        =    -202.44975626252929
Selected quadratic step     =               0.117553
Conjugate gradients coeff.  =               0.048499
--------------------------- NGWF line search finished --------------------------
                                               

################################################################################
########################### NGWF CG iteration  003 #############################
################################################################################
****** Reciprocal space K.E. preconditioning with k_zero =  1.5000 a0^-1 *******
   Initial electron number for spin 1:     246.83691072
     Final electron number for spin 1:     246.00000000

=================== Penalty functional idempotency correction ==================
 RMS occupancy error at iteration   1:  0.005135 (step -0.4897 Ne1=    246.0000)
 RMS occupancy error at iteration   2:  0.000919 (step -0.6498 Ne1=    246.0000)
 RMS occupancy error at iteration   3:  0.000895 (step -0.6798 Ne1=    246.0000)
            Final RMS occupancy error   :  0.000892 (Ne1=    246.0000)
               Final occupancy bounds   : [ -0.0010,  1.0030]
================================================================================

................................................................................
<<<<<<<<<<<<<< LNV (Original version) density kernel optimisation >>>>>>>>>>>>>>
~~~~~~~~~~~~~~~~~~~~~~~~~~~~~~~~~~~~~~~~~~~~~~~~~~~~~~~~~~~~~~~~~~~~~~~~~~~~~~~~
iter|       energy      |  rms DeltaK |  commutator |LScoef|CGcoef|      Ne    |
      ideal mu1:      -0.311568217343
             Q0:    -202.448294964931
             G0:      -0.020657756414
   RMS gradient:       0.001022464189
     Trial step:       0.692761792874
             Q1:    -202.455091500338
 Quadratic coef:       0.007514368964
 Linear coef   :      -0.014310904370
           Qmin:    -202.455108643661
Quadratic minimum step length (  0.659672676244) accepted
    Initial Ne1:     245.99458332
      Final Ne1:     246.00000000

=================== Penalty functional idempotency correction ==================
 RMS occupancy error at iteration   1:  0.003151 (step -0.3692 Ne1=    246.0000)
 RMS occupancy error at iteration   2:  0.002073 (step -0.8731 Ne1=    246.0000)
 RMS occupancy error at iteration   3:  0.001409 (step -0.5059 Ne1=    246.0000)
            Final RMS occupancy error   :  0.000923 (Ne1=    246.0000)
               Final occupancy bounds   : [ -0.0009,  1.0034]
================================================================================

 1   -202.44829496493114 0.00000000000 0.01128181170 0.6597  0.000  246.00000000
      ideal mu1:      -0.313795377775
             Q0:    -202.454396089870
             G0:      -0.012961043417
   RMS gradient:       0.000659180205
     Trial step:       0.676014811898
             Q1:    -202.454528099605
 Quadratic coef:       0.008629847593
 Linear coef   :      -0.008761857328
           Qmin:    -202.456620061470
Quadratic minimum step length (  0.343177864347) accepted
    Initial Ne1:     245.99592989
      Final Ne1:     246.00000000

=================== Penalty functional idempotency correction ==================
 RMS occupancy error at iteration   1:  0.002438 (step -0.3810 Ne1=    246.0000)
 RMS occupancy error at iteration   2:  0.001710 (step -0.9888 Ne1=    246.0000)
 RMS occupancy error at iteration   3:  0.001152 (step -0.4129 Ne1=    246.0000)
            Final RMS occupancy error   :  0.000946 (Ne1=    246.0000)
               Final occupancy bounds   : [ -0.0014,  1.0035]
================================================================================

 2   -202.45439608986987 0.00062127106 0.00917476305 0.3432  0.416  246.00000000
      ideal mu1:      -0.314274246416
 3   -202.45515820799039 0.00025598147 0.00897152143 0.0000  0.000  246.00000000
Finished density kernel iterations (   3)

           ........................................................
           | *** NGWF optimisation not converged ***              |
           | RMS NGWF gradient =    0.00253261339050              |
           | Criteria not satisfied:                              |
           | -> RMS NGWF gradient higher than set threshold.      |
           ========================================================

------------------------------- NGWF line search -------------------------------
============ Calculation of NGWF S^-1 using Hotelling algorithm ================ 
         Iteration  |  Frobenius norm and Maximum abs value    (of I-S*S_n^-1)   
               1       0.28613247E+00     0.18657806E-01
               2       0.26425497E-01     0.28475477E-02
               3       0.26496522E-01     0.28711152E-02
================================================================================
============ Calculation of NGWF S^-1 using Hotelling algorithm ================ 
         Iteration  |  Frobenius norm and Maximum abs value    (of I-S*S_n^-1)   
               1       0.45446630E-01     0.28738025E-02
               2       0.25756301E-01     0.28155427E-02
               3       0.25753301E-01     0.28149549E-02
               4       0.25753298E-01     0.28149548E-02
               5       0.25753298E-01     0.28149548E-02
               6       0.25753298E-01     0.28149548E-02
               7       0.25753298E-01     0.28149548E-02
               8       0.25753298E-01     0.28149548E-02
               9       0.25753298E-01     0.28149548E-02
================================================================================
RMS gradient                =       0.00253261339050
Trial step length           =               0.108802
Gradient along search dir.  =         -0.44661978932
Functional at step 0        =    -202.45515820799039
Functional at step 1        =    -202.47582221651143
Functional predicted        =    -202.47629470322542
Selected quadratic step     =               0.094651
Conjugate gradients coeff.  =               0.096708
--------------------------- NGWF line search finished --------------------------
                                               

################################################################################
########################### NGWF CG iteration  004 #############################
################################################################################
****** Reciprocal space K.E. preconditioning with k_zero =  1.5000 a0^-1 *******
   Initial electron number for spin 1:     247.08026920
     Final electron number for spin 1:     246.00000000

=================== Penalty functional idempotency correction ==================
 RMS occupancy error at iteration   1:  0.003911 (step -0.4930 Ne1=    246.0000)
 RMS occupancy error at iteration   2:  0.001019 (step -0.6588 Ne1=    246.0000)
 RMS occupancy error at iteration   3:  0.001013 (step -3.0194 Ne1=    246.0000)
            Final RMS occupancy error   :  0.001000 (Ne1=    246.0000)
               Final occupancy bounds   : [ -0.0013,  1.0031]
================================================================================

................................................................................
<<<<<<<<<<<<<< LNV (Original version) density kernel optimisation >>>>>>>>>>>>>>
~~~~~~~~~~~~~~~~~~~~~~~~~~~~~~~~~~~~~~~~~~~~~~~~~~~~~~~~~~~~~~~~~~~~~~~~~~~~~~~~
iter|       energy      |  rms DeltaK |  commutator |LScoef|CGcoef|      Ne    |
      ideal mu1:      -0.315627899823
             Q0:    -202.475191312721
             G0:      -0.008860874255
   RMS gradient:       0.000669645287
     Trial step:       0.481656848196
             Q1:    -202.477254742737
 Quadratic coef:       0.002204470750
 Linear coef   :      -0.004267900766
           Qmin:    -202.477256998662
Quadratic minimum step length (  0.466248788156) accepted
    Initial Ne1:     245.99615403
      Final Ne1:     246.00000000

=================== Penalty functional idempotency correction ==================
 RMS occupancy error at iteration   1:  0.002450 (step -0.3784 Ne1=    246.0000)
 RMS occupancy error at iteration   2:  0.001650 (step -0.9069 Ne1=    246.0000)
 RMS occupancy error at iteration   3:  0.001197 (step -0.4478 Ne1=    246.0000)
            Final RMS occupancy error   :  0.000983 (Ne1=    246.0000)
               Final occupancy bounds   : [ -0.0013,  1.0034]
================================================================================

 1   -202.47519131272065 0.00000000000 0.00932508378 0.4662  0.000  246.00000000
      ideal mu1:      -0.315675607870
             Q0:    -202.475940258375
             G0:      -0.014801932836
   RMS gradient:       0.000624832495
     Trial step:       0.473890200129
             Q1:    -202.475866511603
 Quadratic coef:       0.007088237686
 Linear coef   :      -0.007014490914
           Qmin:    -202.477675636227
Quadratic minimum step length (  0.234479898267) accepted
    Initial Ne1:     245.99658161
      Final Ne1:     246.00000000

=================== Penalty functional idempotency correction ==================
 RMS occupancy error at iteration   1:  0.002338 (step -0.3841 Ne1=    246.0000)
 RMS occupancy error at iteration   2:  0.001663 (step -0.9952 Ne1=    246.0000)
 RMS occupancy error at iteration   3:  0.001160 (step -0.3930 Ne1=    246.0000)
            Final RMS occupancy error   :  0.001006 (Ne1=    246.0000)
               Final occupancy bounds   : [ -0.0015,  1.0038]
================================================================================

 2   -202.47594025837455 0.00020003247 0.00899464867 0.2345  0.871  246.00000000
      ideal mu1:      -0.315715422338
 3   -202.47610655708345 0.00017828491 0.00895748330 0.0000  0.000  246.00000000
Finished density kernel iterations (   3)

           ........................................................
           | *** NGWF optimisation not converged ***              |
           | RMS NGWF gradient =    0.00093038855406              |
           | Criteria not satisfied:                              |
           | -> RMS NGWF gradient higher than set threshold.      |
           ========================================================

------------------------------- NGWF line search -------------------------------
============ Calculation of NGWF S^-1 using Hotelling algorithm ================ 
         Iteration  |  Frobenius norm and Maximum abs value    (of I-S*S_n^-1)   
               1       0.24488676E+00     0.16378173E-01
               2       0.30558432E-01     0.32764396E-02
               3       0.30788434E-01     0.33171464E-02
================================================================================
============ Calculation of NGWF S^-1 using Hotelling algorithm ================ 
         Iteration  |  Frobenius norm and Maximum abs value    (of I-S*S_n^-1)   
               1       0.12520641E+00     0.81643527E-02
               2       0.28175309E-01     0.30281883E-02
               3       0.28199011E-01     0.30305701E-02
================================================================================
RMS gradient                =       0.00093038855406
Trial step length           =               0.101480
Gradient along search dir.  =         -0.05818677217
Functional at step 0        =    -202.47610655708345
Functional at step 1        =    -202.47610305044779
Functional predicted        =    -202.47758188429211
Selected quadratic step     =               0.050710
Conjugate gradients coeff.  =               0.134956
--------------------------- NGWF line search finished --------------------------
                                               

################################################################################
########################### NGWF CG iteration  005 #############################
################################################################################
****** Reciprocal space K.E. preconditioning with k_zero =  1.5000 a0^-1 *******
   Initial electron number for spin 1:     246.48790348
     Final electron number for spin 1:     246.00000000

=================== Penalty functional idempotency correction ==================
 RMS occupancy error at iteration   1:  0.002215 (step -0.4930 Ne1=    246.0000)
 RMS occupancy error at iteration   2:  0.001046 (step -0.3894 Ne1=    246.0000)
 RMS occupancy error at iteration   3:  0.001046 (step -2.9456 Ne1=    246.0000)
            Final RMS occupancy error   :  0.001038 (Ne1=    246.0000)
               Final occupancy bounds   : [ -0.0013,  1.0032]
================================================================================

................................................................................
<<<<<<<<<<<<<< LNV (Original version) density kernel optimisation >>>>>>>>>>>>>>
~~~~~~~~~~~~~~~~~~~~~~~~~~~~~~~~~~~~~~~~~~~~~~~~~~~~~~~~~~~~~~~~~~~~~~~~~~~~~~~~
iter|       energy      |  rms DeltaK |  commutator |LScoef|CGcoef|      Ne    |
      ideal mu1:      -0.316436424915
             Q0:    -202.477218606981
             G0:      -0.008171590208
   RMS gradient:       0.000643072325
     Trial step:       0.333343255393
             Q1:    -202.478931365162
 Quadratic coef:       0.001011186301
 Linear coef   :      -0.002723944482
           Qmin:    -202.479053054683
Quadratic minimum step length (  0.448981815013) accepted
    Initial Ne1:     245.99315405
      Final Ne1:     246.00000000

=================== Penalty functional idempotency correction ==================
 RMS occupancy error at iteration   1:  0.002422 (step -0.3855 Ne1=    246.0000)
 RMS occupancy error at iteration   2:  0.001647 (step -0.9517 Ne1=    246.0000)
 RMS occupancy error at iteration   3:  0.001179 (step -0.4117 Ne1=    246.0000)
            Final RMS occupancy error   :  0.001014 (Ne1=    246.0000)
               Final occupancy bounds   : [ -0.0015,  1.0033]
================================================================================

 1   -202.47721860698098 0.00000000000 0.00916536931 0.4490  0.000  246.00000000
      ideal mu1:      -0.316434228187
             Q0:    -202.477599208689
             G0:      -0.015293229130
   RMS gradient:       0.000627308356
     Trial step:       0.386865687066
             Q1:    -202.478358809216
 Quadratic coef:       0.005156825067
 Linear coef   :      -0.005916425595
           Qmin:    -202.479296187516
Quadratic minimum step length (  0.221925508700) accepted
    Initial Ne1:     245.99532622
      Final Ne1:     246.00000000

=================== Penalty functional idempotency correction ==================
 RMS occupancy error at iteration   1:  0.002342 (step -0.3876 Ne1=    246.0000)
 RMS occupancy error at iteration   2:  0.001671 (step -1.0079 Ne1=    246.0000)
 RMS occupancy error at iteration   3:  0.001169 (step -0.3780 Ne1=    246.0000)
            Final RMS occupancy error   :  0.001037 (Ne1=    246.0000)
               Final occupancy bounds   : [ -0.0016,  1.0036]
================================================================================

 2   -202.47759920868879 0.00018150912 0.00899512900 0.2219  0.952  246.00000000
      ideal mu1:      -0.316442587701
 3   -202.47767147283199 0.00017218331 0.00897880382 0.0000  0.000  246.00000000
Finished density kernel iterations (   3)

           ........................................................
           | *** NGWF optimisation not converged ***              |
           | RMS NGWF gradient =    0.00044454884987              |
           | Criteria not satisfied:                              |
           | -> RMS NGWF gradient higher than set threshold.      |
           ========================================================

================================================================================
           ---------------- ENERGY COMPONENTS (Eh) ----------------
           | Kinetic                    :       93.94054177914676 |
           | Pseudopotential (local)    :    -1033.21164106806282 |
           | Pseudopotential (non-local):       -4.37820625360983 |
           | Hartree                    :      480.24027142615955 |
           | Exchange-correlation       :      -72.60040522402367 |
           | Ewald                      :      333.53176786755802 |
           | Total                      :     -202.47767147283193 |
           --------------------------------------------------------
           ------ LOCAL ENERGY COMPONENTS FROM MATRIX TRACES ------
           | Pseudopotential (local)    :    -1033.21164106806509 |
           | Hartree                    :      480.24027142616018 |
           --------------------------------------------------------
           Integrated density           :      245.99999999999991
           Integrated density tr(KS)    :      246.00000000000017
================================================================================


------------------------------- NGWF line search -------------------------------
============ Calculation of NGWF S^-1 using Hotelling algorithm ================ 
         Iteration  |  Frobenius norm and Maximum abs value    (of I-S*S_n^-1)   
               1       0.18361955E+00     0.12035294E-01
               2       0.31778130E-01     0.34332573E-02
               3       0.31966934E-01     0.34586035E-02
================================================================================
============ Calculation of NGWF S^-1 using Hotelling algorithm ================ 
         Iteration  |  Frobenius norm and Maximum abs value    (of I-S*S_n^-1)   
               1       0.13331053E+00     0.85941887E-02
               2       0.29226073E-01     0.31429780E-02
               3       0.29248609E-01     0.31459492E-02
================================================================================
RMS gradient                =       0.00044454884987
Trial step length           =               0.071736
Gradient along search dir.  =         -0.01330523597
Functional at step 0        =    -202.47767147283199
Functional at step 1        =    -202.47696003131330
Functional predicted        =    -202.47780818595675
Selected quadratic step     =               0.020550
Conjugate gradients coeff.  =               0.228302
--------------------------- NGWF line search finished --------------------------
                                               

################################################################################
########################### NGWF CG iteration  006 #############################
################################################################################
****** Reciprocal space K.E. preconditioning with k_zero =  1.5000 a0^-1 *******
   Initial electron number for spin 1:     246.20287630
     Final electron number for spin 1:     246.00000000

=================== Penalty functional idempotency correction ==================
 RMS occupancy error at iteration   1:  0.001334 (step -0.4719 Ne1=    246.0000)
 RMS occupancy error at iteration   2:  0.001063 (step -0.0632 Ne1=    246.0000)
 RMS occupancy error at iteration   3:  0.001063 (step -0.1017 Ne1=    246.0000)
            Final RMS occupancy error   :  0.001063 (Ne1=    246.0000)
               Final occupancy bounds   : [ -0.0014,  1.0040]
================================================================================

................................................................................
<<<<<<<<<<<<<< LNV (Original version) density kernel optimisation >>>>>>>>>>>>>>
~~~~~~~~~~~~~~~~~~~~~~~~~~~~~~~~~~~~~~~~~~~~~~~~~~~~~~~~~~~~~~~~~~~~~~~~~~~~~~~~
iter|       energy      |  rms DeltaK |  commutator |LScoef|CGcoef|      Ne    |
      ideal mu1:      -0.316636950453
             Q0:    -202.477757722346
             G0:      -0.007650259776
   RMS gradient:       0.000622220938
     Trial step:       0.293010860551
             Q1:    -202.479250313596
 Quadratic coef:       0.000749017950
 Linear coef   :      -0.002241609200
           Qmin:    -202.479434855654
Quadratic minimum step length (  0.438451335562) accepted
    Initial Ne1:     246.00965058
      Final Ne1:     246.00000000

=================== Penalty functional idempotency correction ==================
 RMS occupancy error at iteration   1:  0.002421 (step -0.3955 Ne1=    246.0000)
 RMS occupancy error at iteration   2:  0.001680 (step -1.0148 Ne1=    246.0000)
 RMS occupancy error at iteration   3:  0.001165 (step -0.3659 Ne1=    246.0000)
            Final RMS occupancy error   :  0.001051 (Ne1=    246.0000)
               Final occupancy bounds   : [ -0.0017,  1.0039]
================================================================================

 1   -202.47775772234564 0.00000000000 0.00900005135 0.4385  0.000  246.00000000
      ideal mu1:      -0.316667367122
             Q0:    -202.477815045357
             G0:      -0.016118445646
   RMS gradient:       0.000635758128
     Trial step:       0.358428518875
             Q1:    -202.478676875084
 Quadratic coef:       0.004915480873
 Linear coef   :      -0.005777310600
           Qmin:    -202.479512606523
Quadratic minimum step length (  0.210635839588) accepted
    Initial Ne1:     246.00371359
      Final Ne1:     246.00000000

=================== Penalty functional idempotency correction ==================
 RMS occupancy error at iteration   1:  0.002354 (step -0.3940 Ne1=    246.0000)
 RMS occupancy error at iteration   2:  0.001675 (step -1.0280 Ne1=    246.0000)
 RMS occupancy error at iteration   3:  0.001168 (step -0.3569 Ne1=    246.0000)
            Final RMS occupancy error   :  0.001062 (Ne1=    246.0000)
               Final occupancy bounds   : [ -0.0015,  1.0035]
================================================================================

 2   -202.47781504535692 0.00017035944 0.00899264852 0.2106  1.044  246.00000000
      ideal mu1:      -0.316692963034
 3   -202.47784988304247 0.00016989851 0.00898640151 0.0000  0.000  246.00000000
Finished density kernel iterations (   3)

           ........................................................
           | *** NGWF optimisation not converged ***              |
           | RMS NGWF gradient =    0.00027578387864              |
           | Criteria not satisfied:                              |
           | -> RMS NGWF gradient higher than set threshold.      |
           ========================================================

------------------------------- NGWF line search -------------------------------
============ Calculation of NGWF S^-1 using Hotelling algorithm ================ 
         Iteration  |  Frobenius norm and Maximum abs value    (of I-S*S_n^-1)   
               1       0.11672263E+00     0.74050345E-02
               2       0.31464350E-01     0.33958687E-02
               3       0.31563750E-01     0.34068679E-02
================================================================================
============ Calculation of NGWF S^-1 using Hotelling algorithm ================ 
         Iteration  |  Frobenius norm and Maximum abs value    (of I-S*S_n^-1)   
               1       0.94000896E-01     0.58024804E-02
               2       0.29742436E-01     0.31999386E-02
               3       0.29742986E-01     0.32003856E-02
================================================================================
RMS gradient                =       0.00027578387864
Trial step length           =               0.038395
Gradient along search dir.  =         -0.00524930450
Functional at step 0        =    -202.47784988304247
Functional at step 1        =    -202.47758815692984
Functional predicted        =    -202.47787180405734
Selected quadratic step     =               0.008352
Conjugate gradients coeff.  =               0.384856
--------------------------- NGWF line search finished --------------------------
                                               

################################################################################
########################### NGWF CG iteration  007 #############################
################################################################################
****** Reciprocal space K.E. preconditioning with k_zero =  1.5000 a0^-1 *******
   Initial electron number for spin 1:     246.09537652
     Final electron number for spin 1:     246.00000000

=================== Penalty functional idempotency correction ==================
 RMS occupancy error at iteration   1:  0.001134 (step -0.3884 Ne1=    246.0000)
 RMS occupancy error at iteration   2:  0.001082 (step -0.0485 Ne1=    246.0000)
 RMS occupancy error at iteration   3:  0.001081 (step -0.0228 Ne1=    246.0000)
            Final RMS occupancy error   :  0.001081 (Ne1=    246.0000)
               Final occupancy bounds   : [ -0.0015,  1.0037]
================================================================================

................................................................................
<<<<<<<<<<<<<< LNV (Original version) density kernel optimisation >>>>>>>>>>>>>>
~~~~~~~~~~~~~~~~~~~~~~~~~~~~~~~~~~~~~~~~~~~~~~~~~~~~~~~~~~~~~~~~~~~~~~~~~~~~~~~~
iter|       energy      |  rms DeltaK |  commutator |LScoef|CGcoef|      Ne    |
      ideal mu1:      -0.316759321016
             Q0:    -202.477869583470
             G0:      -0.007659769960
   RMS gradient:       0.000622607565
     Trial step:       0.274768797365
             Q1:    -202.479299995445
 Quadratic coef:       0.000674253805
 Linear coef   :      -0.002104665780
           Qmin:    -202.479511998393
Quadratic minimum step length (  0.428841840201) accepted
    Initial Ne1:     246.02551498
      Final Ne1:     246.00000000

[...]
           | Exchange-correlation       :      -72.57560500395958 |
           | Ewald                      :      333.53176786755802 |
           | Total                      :     -202.47790844026886 |
           --------------------------------------------------------
           ------ LOCAL ENERGY COMPONENTS FROM MATRIX TRACES ------
           | Pseudopotential (local)    :    -1033.05085706513296 |
           | Hartree                    :      480.11826377733917 |
           --------------------------------------------------------
           Integrated density           :      246.00000000000017
           Integrated density tr(KS)    :      246.00000000000023
================================================================================


------------------------------- NGWF line search -------------------------------
============ Calculation of NGWF S^-1 using Hotelling algorithm ================ 
         Iteration  |  Frobenius norm and Maximum abs value    (of I-S*S_n^-1)   
               1       0.33112674E-01     0.32748041E-02
               2       0.30662425E-01     0.33020536E-02
               3       0.30668757E-01     0.33025722E-02
================================================================================
============ Calculation of NGWF S^-1 using Hotelling algorithm ================ 
         Iteration  |  Frobenius norm and Maximum abs value    (of I-S*S_n^-1)   
               1       0.32471032E-01     0.33016371E-02
               2       0.30461675E-01     0.32796178E-02
               3       0.30457743E-01     0.32793042E-02
               4       0.30457736E-01     0.32793036E-02
               5       0.30457736E-01     0.32793036E-02
               6       0.30457736E-01     0.32793036E-02
               7       0.30457736E-01     0.32793036E-02
               8       0.30457736E-01     0.32793036E-02
               9       0.30457736E-01     0.32793036E-02
================================================================================
RMS gradient                =       0.00009047223946
Trial step length           =               0.001751
Gradient along search dir.  =         -0.00091734854
Functional at step 0        =    -202.47790844026881
Functional at step 1        =    -202.47790594880752
Functional predicted        =    -202.47790859761818
Selected quadratic step     =               0.000343
Conjugate gradients coeff.  =               0.998375
--------------------------- NGWF line search finished --------------------------
                                               

################################################################################
########################### NGWF CG iteration  011 #############################
################################################################################
****** Reciprocal space K.E. preconditioning with k_zero =  1.5000 a0^-1 *******
   Initial electron number for spin 1:     246.00998338
     Final electron number for spin 1:     246.00000000

=================== Penalty functional idempotency correction ==================
 RMS occupancy error at iteration   1:  0.001086 (step -0.0025 Ne1=    246.0000)
 RMS occupancy error at iteration   2:  0.001086 (step -0.0001 Ne1=    246.0000)
 RMS occupancy error at iteration   3:  0.001086 (step  0.0000 Ne1=    246.0000)
            Final RMS occupancy error   :  0.001086 (Ne1=    246.0000)
               Final occupancy bounds   : [ -0.0018,  1.0039]
================================================================================

................................................................................
<<<<<<<<<<<<<< LNV (Original version) density kernel optimisation >>>>>>>>>>>>>>
~~~~~~~~~~~~~~~~~~~~~~~~~~~~~~~~~~~~~~~~~~~~~~~~~~~~~~~~~~~~~~~~~~~~~~~~~~~~~~~~
iter|       energy      |  rms DeltaK |  commutator |LScoef|CGcoef|      Ne    |
      ideal mu1:      -0.316912143266
             Q0:    -202.477908522540
             G0:      -0.008057105502
   RMS gradient:       0.000638551685
     Trial step:       0.188072414601
             Q1:    -202.479076669549
 Quadratic coef:       0.000347172277
 Linear coef   :      -0.001515319287
           Qmin:    -202.479562019011
Quadratic minimum step length (  0.410444289257) accepted
    Initial Ne1:     246.01235462
      Final Ne1:     246.00000000

=================== Penalty functional idempotency correction ==================
 RMS occupancy error at iteration   1:  0.002357 (step -0.3964 Ne1=    246.0000)
 RMS occupancy error at iteration   2:  0.001662 (step -1.0344 Ne1=    246.0000)
 RMS occupancy error at iteration   3:  0.001180 (step -0.3471 Ne1=    246.0000)
            Final RMS occupancy error   :  0.001086 (Ne1=    246.0000)
               Final occupancy bounds   : [ -0.0018,  1.0037]
================================================================================

 1   -202.47790852253999 0.00000000000 0.00899996770 0.4104  0.000  246.00000000
      ideal mu1:      -0.316913699654
             Q0:    -202.477906538626
             G0:      -0.016127940744
   RMS gradient:       0.000638783241
     Trial step:       0.277836730005
             Q1:    -202.479349915376
 Quadratic coef:       0.003037557568
 Linear coef   :      -0.004480934318
           Qmin:    -202.479559081163
Quadratic minimum step length (  0.204929142951) accepted
    Initial Ne1:     246.00516323
      Final Ne1:     246.00000000

=================== Penalty functional idempotency correction ==================
 RMS occupancy error at iteration   1:  0.002354 (step -0.3964 Ne1=    246.0000)
 RMS occupancy error at iteration   2:  0.001661 (step -1.0341 Ne1=    246.0000)
 RMS occupancy error at iteration   3:  0.001180 (step -0.3471 Ne1=    246.0000)
            Final RMS occupancy error   :  0.001086 (Ne1=    246.0000)
               Final occupancy bounds   : [ -0.0017,  1.0043]
================================================================================

 2   -202.47790653862600 0.00016662382 0.00900057006 0.2049  1.001  246.00000000
      ideal mu1:      -0.316914969658
             Q0:    -202.477907284983
             G0:      -0.024185446382
   RMS gradient:       0.000638729639
     Trial step:       0.238614423202
             Q1:    -202.478636792019
 Quadratic coef:       0.005041489303
 Linear coef   :      -0.005770996338
           Qmin:    -202.479558800871
Quadratic minimum step length (  0.136571048738) accepted
    Initial Ne1:     246.00284617
      Final Ne1:     246.00000000

=================== Penalty functional idempotency correction ==================
 RMS occupancy error at iteration   1:  0.002354 (step -0.3964 Ne1=    246.0000)
 RMS occupancy error at iteration   2:  0.001661 (step -1.0342 Ne1=    246.0000)
 RMS occupancy error at iteration   3:  0.001180 (step -0.3469 Ne1=    246.0000)
            Final RMS occupancy error   :  0.001086 (Ne1=    246.0000)
               Final occupancy bounds   : [ -0.0017,  1.0034]
================================================================================

 3   -202.47790728498299 0.00016643191 0.00900068092 0.1366  1.000  246.00000000
      ideal mu1:      -0.316915977371
             Q0:    -202.477907354295
             G0:      -0.032250035914
   RMS gradient:       0.000638752125
     Trial step:       0.180520973908
             Q1:    -202.478598458270
 Quadratic coef:       0.005130703916
 Linear coef   :      -0.005821807892
           Qmin:    -202.479558855126
Quadratic minimum step length (  0.102418542141) accepted
    Initial Ne1:     246.00162419
      Final Ne1:     246.00000000

=================== Penalty functional idempotency correction ==================
 RMS occupancy error at iteration   1:  0.002354 (step -0.3964 Ne1=    246.0000)
 RMS occupancy error at iteration   2:  0.001660 (step -1.0341 Ne1=    246.0000)
 RMS occupancy error at iteration   3:  0.001180 (step -0.3469 Ne1=    246.0000)
            Final RMS occupancy error   :  0.001086 (Ne1=    246.0000)
               Final occupancy bounds   : [ -0.0016,  1.0036]
================================================================================

 4   -202.47790735429479 0.00016633600 0.00900104046 0.1024  1.000  246.00000000
      ideal mu1:      -0.316916764966
 5   -202.47790751869351 0.00016632972 0.00900128786 0.0000  0.000  246.00000000
Finished density kernel iterations (   5)

           ........................................................
           | *** NGWF optimisation not converged ***              |
           | RMS NGWF gradient =    0.00008052260773              |
           | Criteria not satisfied:                              |
           | -> RMS NGWF gradient higher than set threshold.      |
           ========================================================

------------------------------- NGWF line search -------------------------------
============ Calculation of NGWF S^-1 using Hotelling algorithm ================ 
         Iteration  |  Frobenius norm and Maximum abs value    (of I-S*S_n^-1)   
               1       0.31057488E-01     0.32798478E-02
               2       0.30577101E-01     0.32925511E-02
               3       0.30579858E-01     0.32927754E-02
================================================================================
============ Calculation of NGWF S^-1 using Hotelling algorithm ================ 
         Iteration  |  Frobenius norm and Maximum abs value    (of I-S*S_n^-1)   
               1       0.30960634E-01     0.32923524E-02
               2       0.30486882E-01     0.32824626E-02
               3       0.30484980E-01     0.32823098E-02
               4       0.30484977E-01     0.32823095E-02
               5       0.30484977E-01     0.32823095E-02
               6       0.30484977E-01     0.32823095E-02
               7       0.30484977E-01     0.32823095E-02
               8       0.30484977E-01     0.32823095E-02
               9       0.30484977E-01     0.32823095E-02
================================================================================
RMS gradient                =       0.00008052260773
Trial step length           =               0.000775
Gradient along search dir.  =         -0.00050771487
Functional at step 0        =    -202.47790751869351
Functional at step 1        =    -202.47790703103550
Functional predicted        =    -202.47790756261637
Selected quadratic step     =               0.000173
Conjugate gradients coeff.  =               0.792146
--------------------------- NGWF line search finished --------------------------
                                               

################################################################################
########################### NGWF CG iteration  012 #############################
################################################################################
****** Reciprocal space K.E. preconditioning with k_zero =  1.5000 a0^-1 *******
   Initial electron number for spin 1:     246.00530198
     Final electron number for spin 1:     246.00000000

=================== Penalty functional idempotency correction ==================
 RMS occupancy error at iteration   1:  0.001086 (step  0.0111 Ne1=    246.0000)
 RMS occupancy error at iteration   2:  0.001086 (step  0.0005 Ne1=    246.0000)
 RMS occupancy error at iteration   3:  0.001086 (step  0.0000 Ne1=    246.0000)
            Final RMS occupancy error   :  0.001086 (Ne1=    246.0000)
               Final occupancy bounds   : [ -0.0017,  1.0043]
================================================================================

................................................................................
<<<<<<<<<<<<<< LNV (Original version) density kernel optimisation >>>>>>>>>>>>>>
~~~~~~~~~~~~~~~~~~~~~~~~~~~~~~~~~~~~~~~~~~~~~~~~~~~~~~~~~~~~~~~~~~~~~~~~~~~~~~~~
iter|       energy      |  rms DeltaK |  commutator |LScoef|CGcoef|      Ne    |
      ideal mu1:      -0.316918873425
             Q0:    -202.477907039516
             G0:      -0.008074417790
   RMS gradient:       0.000639237344
     Trial step:       0.135973140633
             Q1:    -202.478822828035
 Quadratic coef:       0.000182115426
 Linear coef   :      -0.001097903946
           Qmin:    -202.479561749802
Quadratic minimum step length (  0.409864916469) accepted
    Initial Ne1:     246.00558289
      Final Ne1:     246.00000000

=================== Penalty functional idempotency correction ==================
 RMS occupancy error at iteration   1:  0.002356 (step -0.3964 Ne1=    246.0000)
 RMS occupancy error at iteration   2:  0.001662 (step -1.0349 Ne1=    246.0000)
 RMS occupancy error at iteration   3:  0.001180 (step -0.3468 Ne1=    246.0000)
            Final RMS occupancy error   :  0.001086 (Ne1=    246.0000)
               Final occupancy bounds   : [ -0.0016,  1.0043]
================================================================================

 1   -202.47790703951566 0.00000000000 0.00900171439 0.4099  0.000  246.00000000
      ideal mu1:      -0.316919396400
             Q0:    -202.477905875257
             G0:      -0.016129095874
   RMS gradient:       0.000638928929
     Trial step:       0.236073335909
             Q1:    -202.479519878927
 Quadratic coef:       0.002193645798
 Linear coef   :      -0.003807649468
           Qmin:    -202.479558169635
Quadratic minimum step length (  0.204883694737) accepted
    Initial Ne1:     246.00165266
      Final Ne1:     246.00000000

=================== Penalty functional idempotency correction ==================
 RMS occupancy error at iteration   1:  0.002355 (step -0.3964 Ne1=    246.0000)
 RMS occupancy error at iteration   2:  0.001661 (step -1.0341 Ne1=    246.0000)
 RMS occupancy error at iteration   3:  0.001180 (step -0.3470 Ne1=    246.0000)
            Final RMS occupancy error   :  0.001086 (Ne1=    246.0000)
               Final occupancy bounds   : [ -0.0016,  1.0040]
================================================================================

 2   -202.47790587525697 0.00016663111 0.00900175966 0.2049  0.999  246.00000000
      ideal mu1:      -0.316919816667
             Q0:    -202.477906902734
             G0:      -0.024179453562
   RMS gradient:       0.000638767760
     Trial step:       0.219926299678
             Q1:    -202.478942930451
 Quadratic coef:       0.004281670034
 Linear coef   :      -0.005317697750
           Qmin:    -202.479558005525
Quadratic minimum step length (  0.136570728214) accepted
    Initial Ne1:     246.00038729
      Final Ne1:     246.00000000

=================== Penalty functional idempotency correction ==================
 RMS occupancy error at iteration   1:  0.002354 (step -0.3964 Ne1=    246.0000)
 RMS occupancy error at iteration   2:  0.001660 (step -1.0343 Ne1=    246.0000)
 RMS occupancy error at iteration   3:  0.001180 (step -0.3468 Ne1=    246.0000)
            Final RMS occupancy error   :  0.001086 (Ne1=    246.0000)
               Final occupancy bounds   : [ -0.0017,  1.0033]
================================================================================

 3   -202.47790690273442 0.00016643440 0.00900138436 0.1366  0.999  246.00000000
      ideal mu1:      -0.316920141256
             Q0:    -202.477906648932
             G0:      -0.032247675329
   RMS gradient:       0.000638808693
     Trial step:       0.173307515418
             Q1:    -202.478766755922
 Quadratic coef:       0.004728657499
 Linear coef   :      -0.005588764489
           Qmin:    -202.479557978539
Quadratic minimum step length (  0.102415420035) accepted
    Initial Ne1:     245.99971977
      Final Ne1:     246.00000000

=================== Penalty functional idempotency correction ==================
 RMS occupancy error at iteration   1:  0.002354 (step -0.3964 Ne1=    246.0000)
 RMS occupancy error at iteration   2:  0.001660 (step -1.0343 Ne1=    246.0000)
 RMS occupancy error at iteration   3:  0.001180 (step -0.3468 Ne1=    246.0000)
            Final RMS occupancy error   :  0.001086 (Ne1=    246.0000)
               Final occupancy bounds   : [ -0.0017,  1.0036]
================================================================================

 4   -202.47790664893165 0.00016633962 0.00900167532 0.1024  1.000  246.00000000
      ideal mu1:      -0.316920392154
 5   -202.47790665009711 0.00016634554 0.00900179558 0.0000  0.000  246.00000000
Finished density kernel iterations (   5)

           ........................................................
           | *** NGWF optimisation converged ***                  |
           | RMS NGWF gradient =    0.00006891865432              |
           | Criteria satisfied:                                  |
           | -> Maximum degree of convergence for applied level   |
           |    of density kernel truncation has been reached.    | 
           ========================================================

================================================================================
           ---------------- ENERGY COMPONENTS (Eh) ----------------
           | Kinetic                    :       93.87101570968836 |
           | Pseudopotential (local)    :    -1033.04668141884804 |
           | Pseudopotential (non-local):       -4.37408013156982 |
           | Hartree                    :      480.11504659418574 |
           | Exchange-correlation       :      -72.57497527111137 |
           | Ewald                      :      333.53176786755802 |
           | Total                      :     -202.47790665009717 |
           --------------------------------------------------------
           ------ LOCAL ENERGY COMPONENTS FROM MATRIX TRACES ------
           | Pseudopotential (local)    :    -1033.04668141884849 |
           | Hartree                    :      480.11504659418586 |
           --------------------------------------------------------
           Integrated density           :      245.99999999999935
           Integrated density tr(KS)    :      246.00000000000000
================================================================================


                    <<<<< CALCULATION SUMMARY >>>>>
|ITER|    RMS GRADIENT   |     TOTAL ENERGY    |   step   |     Epredicted      
   1     0.03698018824363   -198.02284141448769   0.082802   -201.91758315023677
   2     0.00814398087500   -202.16827964954999   0.117553   -202.44975626252929
   3     0.00253261339050   -202.45515820799039   0.094651   -202.47629470322542
   4     0.00093038855406   -202.47610655708345   0.050710   -202.47758188429211
   5     0.00044454884987   -202.47767147283199   0.020550   -202.47780818595675
   6     0.00027578387864   -202.47784988304247   0.008352   -202.47787180405734
   7     0.00020235953109   -202.47788593182287   0.013546   -202.47790501073425
   8     0.00007077246188   -202.47789876339795   0.001359   -202.47789897820962
   9     0.00009054582131   -202.47790830934485   0.000666   -202.47790863671977
  10     0.00009047223946   -202.47790844026881   0.000343   -202.47790859761818
  11     0.00008052260773   -202.47790751869351   0.000173   -202.47790756261637
  12     0.00006891865432   -202.47790665009711  <-- CG                         
 
<QC>        [NGWF iterations]:       12
<QC>           [total_energy]:     -202.47790665
<QC>                     [F0]:     -202.47790752
<QC>                     [F1]:     -202.47790703
<QC>                     [F2]:        0.00000000
<QC>   [predicted_functional]:     -202.47790756
<QC>           [rms_gradient]:        0.000068918654
<QC>                 [G_init]:       -0.000507714871
<QC>        [quadratic_coeff]:        0.000173
<QC>            [cubic_coeff]:        0.000000
<QC>               [cg_coeff]:        0.792146
<QC>           [trial_length]:        0.000775

------------------------------ TIMING INFORMATION ------------------------------
TOTAL TIME:      94.909s on     4 node(s)

Job completed: 27-05-2011 23:31 (+0100)

