 +---------------------------------------------------------------+
 |                                                               |
 |        ####### #     # ####### ####### ####### ######         |
 |        #     # ##    # #          #    #       #     #        |
 |        #     # # #   # #          #    #       #     #        |
 |        #     # #  #  # #####      #    #####   ######         |
 |        #     # #   # # #          #    #       #              |
 |        #     # #    ## #          #    #       #              |
 |        ####### #     # #######    #    ####### #              |
 |                                                               |
 |        Linear-Scaling Ab Initio Total Energy Program          |
 |                                                               |
 |          Release for academic collaborators of ODG            |
 |                                             Version 5.1.6.19. |
 |                                                               |
 +---------------------------------------------------------------+
 |                                                               |
 |  Authors:                                                     |
 |  Jacek Dziedzic, Peter D. Haynes, Nicholas D. M. Hine,        |
 |  Arash. A. Mostofi, Mike C. Payne and Chris-Kriton Skylaris   |
 |                                                               |
 |  Contributors:                                                |
 |  J. Aarons, L. Andrinopoulos, P. W. Avraam, R. A. Bell,       |
 |  G. A. Bramley, R. J. Charlton, S. J. Clark, R. J. Clements   |
 |  G. C. Constantinescu, F. Corsetti, N. Corsini, O. Dieguez,   |
 |  F. Corsetti, N. Corsini, O. Dieguez, S. M. M. Dubois,        |
 |  K. K. B. Duff, J. M. Escartin, A. Greco, H. Helal,           |
 |  Q. O. Hill, L. P. Lee, J.-H. Li, E. B. Linscott, G. Moynihan,|
 |  D. D. O`Regan, O. K. Okan, M. J. S. Phipps, C. J. Pickard,   |
 |  J. C. A. Prentice, M. I. J. Probert, L. E. Ratcliff,         |
 |  M. Robinson, A. Ruiz Serrano, J. S. Spencer, E. W. Tait,     |
 |  G. Teobaldi, D. Turban, V. Vitale, K. A. Wilkinson,          |
 |  C. Weber, J. C. Womack, N. Yeung and T. J. Zuehlsdorff       |
 |                                                               |
 |                                   Copyright (c) 2004-2019     |
 |                                                               |
 |  Please cite:                                                 |
 |  "Introducing ONETEP: Linear-scaling density functional       |
 |   simulations on parallel computers".                         |
 |   C.-K. Skylaris, P. D. Haynes, A. A. Mostofi, M. C. Payne.   |
 |   J. Chem. Phys. 122 084119 (2005).                           |
 |                                                               |
 |          in all publications arising from your use of ONETEP. |
 |                                                               |
 +---------------------------------------------------------------+
 |                                                               |
 |   ONETEP is based on developments described in the following  |
 |   publications:                                               |
 |                                                               |
 |  "Nonorthogonal generalized Wannier function pseudopotential  |
 |   plane-wave method".                                         |
 |   C.-K. Skylaris, A. A. Mostofi, P. D. Haynes, O. Dieguez,    |
 |   M. C. Payne.                                                |
 |   Phys. Rev. B 66 035119 (2002).                              |
 |                                                               |
 |  "Preconditioned iterative minimization for linear-scaling    |
 |   electronic structure calculations".                         |
 |   A. A. Mostofi, P. D. Haynes, C.-K. Skylaris, M. C. Payne.   |
 |   J. Chem. Phys. 119(17), pp.8842-8848 (2003).                |
 |                                                               |
 |  "Total-energy calculations on a real space grid with         |
 |   localized functions and a plane-wave basis".                |
 |   A. A. Mostofi, C.-K. Skylaris, P. D. Haynes, M. C. Payne.   |
 |   Comput. Phys. Commun. 147, pp.788-802 (2002).               |
 |                                                               |
 |  "Accurate kinetic energy evaluation in electronic structure  |
 |   calculations with localized functions on real space grids"  |
 |   C.-K. Skylaris, A. A. Mostofi, P. D. Haynes, C. J. Pickard, |
 |   M. C. Payne.                                                |
 |   Comput. Phys. Commun. 140, pp.315-322 (2001).               |
 |                                                               |
 |  "Accurate ionic forces and geometry optimization in linear-  |
 |   scaling density-functional theory with local orbitals"      |
 |   N. D. M. Hine, M. Robinson, P. D. Haynes, C.-K. Skylaris,   |
 |   M. C. Payne, and A. A. Mostofi.                             |
 |   Phys. Rev. B 83 195102 (2011).                              |
 |                                                               |
 +---------------------------------------------------------------+

Job started: 10-02-2020 16:51 (+0100)
 
Reading parameters from file "FeCO3.dat" ...... done

If your calculation crashes here, before "Checking processes and threads..."
is displayed, then your stack size is insufficient.
If so, use "ulimit -s unlimited" at runtime.
You can disable this check with "check_stack_size F".

Checking processes and threads...
   Determining the default number of threads...
      Default threads set at compilation time: 4
      OpenMP library call suggests 10 threads.
      Hybrid MPI-OpenMP compilation detected.
      Number of MPI processes > 1.
      WARNING: Error getting the value of the OMP_NUM_THREADS environment variable.
      Not changing the default number of threads (risk of CPU oversubscription).
      Default threads: 4
      Default applies to threads_max and threads_num_fftboxes.
      Settings in the input file override this default.
   ... done

   Running with 2 MPI processes.
   There are 2 MPI processes running on the same node as the root process.
   Each MPI process is using: 
               1 threads for simulation cell FFTs.
               1 threads for parallel FFT box operations.
               4 threads for loops over batched FFT box operations.
               4 threads in other parallel regions.
... done

Basic input checks...
Resetting ngwf_cg_rotate to TRUE for EDFT calculations
... done

Reading geometry and species blocks from file "FeCO3.dat" ...
  <species_atomic_set> block not found: NGWF initialisation set to SOLVE
    
  Number of PPD points along a3 set to1.  This is 
  the default value, it may have been provided also in the input file.
... done


--------------------------------------------------------------------------------
---------------------------------- INPUT FILE ----------------------------------
--------------------------------------------------------------------------------

task                  : singlepoint                                             
cutoff_energy         : 700.000000 eV                                           
maxit_ngwf_cg         : 30                                                      
minit_lnv             : 5                                                       
maxit_lnv             : 15                                                      
xc_functional         : PBE                                                     
edft : T                                                                        
spin_polarized        : F                                                       
spin                  : 0                                                       
write_denskern : T                                                              
write_tightbox_ngwfs : T                                                        
read_denskern         : F                                                       
read_tightbox_ngwfs   : F                                                       
write_forces : F                                                                
output_detail         : VERBOSE                                                 
print_qc              : T                                                       
cube_format : F                                                                 
kerfix                :  1                                                      
pen_param             :  20                                                     
maxit_pen             :  0                                                      
maxit_palser_mano     : -1                                                      
maxit_kernel_fix      :  250                                                    
maxit_hotelling       :  0                                                      
delta_e_conv          :  T                                                      
%block hubbard                                                                  
Fe 2 0.0 0.0 10.0 0.0 0.0                                                       
%endblock hubbard                                                               
%block lattice_cart                                                             
'ang'                                                                           
21.167    0.000    0.000                                                        
0.000   21.167    0.000                                                         
0.000    0.000   21.167                                                         
%endblock lattice_cart                                                          
%block positions_abs                                                            
     Hash =  -000007321279688616296584
%endblock positions_abs                                                         
%block species                                                                  
'ang'                                                                           
Fe    Fe  26 13  6.6                                                            
C      C   6  4  5.0                                                            
O      O   8  4  5.0                                                            
%endblock species                                                               
%block species_pot                                                              
Fe   "../../pseudo/Fe_13NGWFs.recpot"                                           
C    "../../pseudo/C.recpot"                                                    
O    "../../pseudo/O.recpot"                                                    
%endblock species_pot                                                           
%block species_ldos_groups                                                      
Fe                                                                              
C                                                                               
O                                                                               
%endblock species_ldos_groups                                                   

--------------------------------------------------------------------------------
-------------------------------- END INPUT FILE --------------------------------
--------------------------------------------------------------------------------


 
<<<<<<<<<<<<<<<<<<<<<<<<<<<<<<<<< Full system >>>>>>>>>>>>>>>>>>>>>>>>>>>>>>>>>>
<<<<<<<<<<<<<<<<<<<<<<<<< Pseudopotential information >>>>>>>>>>>>>>>>>>>>>>>>>>
File: ../../pseudo/Fe_13NGWFs.recpot [ 2001 points up to Gmax=  52.9 (1/bohr)]
  Atomic number: 26;  ionic charge: 16.000000
    Shell 1: l = 0; rc = 1.66 bohr
    Shell 2: l = 1; rc = 1.90 bohr
    Shell 3: l = 2; rc = 1.96 bohr
File: ../../pseudo/C.recpot [ 2001 points up to Gmax=  52.9 (1/bohr)]
  Atomic number:  6;  ionic charge:  4.000000
    Shell 1: l = 1; rc = 1.31 bohr
File: ../../pseudo/O.recpot [ 2001 points up to Gmax=  52.9 (1/bohr)]
  Atomic number:  8;  ionic charge:  6.000000
    Shell 1: l = 1; rc = 1.54 bohr
<<<<<<<<<<<<<<<<<<<<<<<<<<<<<<<<<<<<<<<<>>>>>>>>>>>>>>>>>>>>>>>>>>>>>>>>>>>>>>>>

-------------------------- Atom counting information ---------------------------
Symbol    Natoms    Nngwfs    Nprojs
  Fe         1        13         9
  C          1         4         3
  O          3        12         9
.......   ......    ......    ......
Totals:      5        29        21
--------------------------------------------------------------------------------

=============================== PSINC grid sizes ===============================
                      Simulation cell:   75 x  75 x  75
                              FFT-box:   75 x  75 x  75
                                  PPD:    5 x   5 x   1
Grid space d1=  0.533331317625a0 (KE cutoff=  26.70606Eh = 726.70888eV)
Grid space d2=  0.533331317625a0 (KE cutoff=  26.70606Eh = 726.70888eV)
Grid space d3=  0.533331317625a0 (KE cutoff=  26.70606Eh = 726.70888eV)
================================================================================

********************* Fourier parallelisation information **********************
       Coarse grid (whole simulation cell) dimensions:     75    75    75
          Real-space ('12') slabs/node (min max mean):     37    38    37
         Recip-space ('23') slabs/node (min max mean):     19    19    19
********************************************************************************

********************* Fourier parallelisation information **********************
       Double grid (whole simulation cell) dimensions:    150   150   150
          Real-space ('12') slabs/node (min max mean):     75    75    75
         Recip-space ('23') slabs/node (min max mean):     38    38    38
********************************************************************************

Atom SCF Calculation for Fe : Z (AE atom) =  26 : Z (PS atom) =  16
Config String:
Orbitals (num,occ):  5     2.00 6.00 6.00 2.00 0.00
Orbitals   (num,l):  5        0    1    2    0    1
Real-space Grid (nr,dr,rmax): 1753    0.0071188341   12.4721973933
Spherical Bessel Basis (nsws,lmax,cutoff):   37    2  154.3457757430
Confining potential (l,width,scale):  0    3.0000000000  100.0000000000
Confining potential (l,width,scale):  1    3.0000000000  100.0000000000
Confining potential (l,width,scale):  2    3.0000000000  100.0000000000
  1        -68.9981074942  -58.7522367359   72.2164191848   -8.7790296199
  2       -116.7611882168  -19.1181757813  100.4526507385  -12.0031163552
  3       -115.1485089240  -20.4692461905   99.0412250143  -11.9008800317
  4       -116.3915204625  -19.8032847969   99.7334656273  -12.0057643402
  5       -115.6458311322  -20.3391560489   99.1795791799  -11.9536715588
  6       -115.9903868602  -20.1379398674   99.3886244060  -11.9813093814
  7       -115.8773519246  -20.2224600390   99.3015084100  -11.9734894631
  8       -115.8965548258  -20.2163836215   99.3080529078  -11.9752994523
  9       -115.8953751321  -20.2203622669   99.3040590543  -11.9753793842
 10       -115.8958087191  -20.2222894470   99.3021494273  -11.9755228858
 11       -115.8961319075  -20.2232963747   99.3011537531  -11.9756056264
 12       -115.8963813273  -20.2240475210   99.3004110408  -11.9756669295
 13       -115.8965709483  -20.2246092437   99.2998555841  -11.9757121854
 14       -115.8967143299  -20.2250295515   99.2994399210  -11.9757455656
 15       -115.8968225214  -20.2253440267   99.2991288889  -11.9757701898
 16       -115.8969040853  -20.2255792599   99.2988962106  -11.9757883643
 17       -115.8969655467  -20.2257551703   99.2987221986  -11.9758017873
 18       -115.8970118470  -20.2258866849   99.2985920967  -11.9758117084
 19       -115.8970467195  -20.2259849869   99.2984948475  -11.9758190466
 20       -115.8970729814  -20.2260584510   99.2984221692  -11.9758244785
 21       -115.8970927570  -20.2261133455   99.2983678622  -11.9758285025
 22       -115.8971076477  -20.2261543601   99.2983272874  -11.9758314857
 23       -115.8971188600  -20.2261850023   99.2982969749  -11.9758336990
 24       -115.8971273026  -20.2262078944   99.2982743303  -11.9758353423
 25       -115.8971336601  -20.2262249965   99.2982574142  -11.9758365634
 26       -115.8971384478  -20.2262377733   99.2982447775  -11.9758374714
 27       -115.8971420536  -20.2262473191   99.2982353372  -11.9758381471
 28       -115.8971447697  -20.2262544514   99.2982282845  -11.9758386502
 29       -115.8971468159  -20.2262597809   99.2982230150  -11.9758390252
 30       -115.8971483576  -20.2262637637   99.2982190777  -11.9758393048
 31       -115.8971495195  -20.2262667405   99.2982161353  -11.9758395135
 32       -115.8971503953  -20.2262689657   99.2982139361  -11.9758396694
 33       -115.8971510555  -20.2262706292   99.2982122923  -11.9758397859
 34       -115.8971515534  -20.2262718732   99.2982110633  -11.9758398730
 35       -115.8971519289  -20.2262728035   99.2982101444  -11.9758399382
 36       -115.8971522123  -20.2262734994   99.2982094571  -11.9758399870
 37       -115.8971524260  -20.2262740200   99.2982089431  -11.9758400236
 38       -115.8971525874  -20.2262744096   99.2982085584  -11.9758400510
 39       -115.8971527092  -20.2262747012   99.2982082706  -11.9758400716
 40       -115.8971528013  -20.2262749195   99.2982080552  -11.9758400870
Atom SCF converged after  40 iterations to a total energy of   -115.89715280

Atom SCF Calculation for C  : Z (AE atom) =   6 : Z (PS atom) =   4
Config String:
Orbitals (num,occ):  2     2.00 2.00
Orbitals   (num,l):  2        0    1
Real-space Grid (nr,dr,rmax): 1329    0.0071149355    9.4486343889
Spherical Bessel Basis (nsws,lmax,cutoff):   37    1  154.3457757430
Confining potential (l,width,scale):  0    3.0000000000  100.0000000000
Confining potential (l,width,scale):  1    3.0000000000  100.0000000000
  1         -5.1288553451   -1.2631530819    4.5135261886   -1.4493313815
  2         -5.2270626409   -1.3665116397    4.4033742962   -1.4167429013
  3         -5.2984765318   -1.3832127220    4.3861346632   -1.4142537391
  4         -5.3328496194   -1.3868515056    4.3823158958   -1.4148603328
  5         -5.3467792158   -1.3887707279    4.3802190179   -1.4150694831
  6         -5.3525782950   -1.3896234689    4.3792804614   -1.4151543416
  7         -5.3550090708   -1.3899849780    4.3788817383   -1.4151902271
  8         -5.3560297454   -1.3901362368    4.3787147119   -1.4152054149
  9         -5.3564585654   -1.3901993433    4.3786449611   -1.4152118017
 10         -5.3566388084   -1.3902256622    4.3786158462   -1.4152144774
 11         -5.3567146005   -1.3902366447    4.3786036871   -1.4152155960
 12         -5.3567464838   -1.3902412316    4.3785986048   -1.4152160629
 13         -5.3567599012   -1.3902431494    4.3785964782   -1.4152162575
 14         -5.3567655498   -1.3902439520    4.3785955875   -1.4152163385
 15         -5.3567679286   -1.3902442883    4.3785952139   -1.4152163722
 16         -5.3567689308   -1.3902444294    4.3785950571   -1.4152163862
 17         -5.3567693532   -1.3902444886    4.3785949912   -1.4152163920
 18         -5.3567695312   -1.3902445135    4.3785949635   -1.4152163944
 19         -5.3567696063   -1.3902445240    4.3785949519   -1.4152163954
Atom SCF converged after  19 iterations to a total energy of     -5.35676961

Atom SCF Calculation for O  : Z (AE atom) =   8 : Z (PS atom) =   6
Config String:
Orbitals (num,occ):  2     2.00 4.00
Orbitals   (num,l):  2        0    1
Real-space Grid (nr,dr,rmax): 1329    0.0071149355    9.4486343889
Spherical Bessel Basis (nsws,lmax,cutoff):   37    1  154.3457757430
Confining potential (l,width,scale):  0    3.0000000000  100.0000000000
Confining potential (l,width,scale):  1    3.0000000000  100.0000000000
  1         -9.8759756292   -7.1253072925   10.1554339244   -2.4512393157
  2        -15.3603113597   -3.1736514980   13.3439940686   -3.1731817879
  3        -15.5612802100   -3.0710809809   13.4554340220   -3.2060690709
  4        -15.5582323415   -3.0896073284   13.4362488399   -3.2056177286
  5        -15.5752016918   -3.0848372063   13.4416465096   -3.2086050808
  6        -15.5776318408   -3.0855838400   13.4409374971   -3.2090413093
  7        -15.5794374377   -3.0856482462   13.4409168661   -3.2093576916
  8        -15.5804000088   -3.0856938060   13.4408935591   -3.2095239374
  9        -15.5809060585   -3.0857285311   13.4408698113   -3.2096099639
 10        -15.5811720485   -3.0857523547   13.4408513928   -3.2096544402
 11        -15.5813119333   -3.0857676895   13.4408387184   -3.2096774441
 12        -15.5813855422   -3.0857771680   13.4408305490   -3.2096893513
 13        -15.5814242985   -3.0857828655   13.4408254955   -3.2096955205
 14        -15.5814447161   -3.0857862213   13.4408224564   -3.2096987200
 15        -15.5814554786   -3.0857881676   13.4408206658   -3.2097003812
 16        -15.5814611547   -3.0857892829   13.4408196270   -3.2097012446
 17        -15.5814641499   -3.0857899158   13.4408190316   -3.2097016938
 18        -15.5814657313   -3.0857902722   13.4408186937   -3.2097019278
 19        -15.5814665665   -3.0857904715   13.4408185034   -3.2097020498
 20        -15.5814670080   -3.0857905824   13.4408183970   -3.2097021135
 21        -15.5814672413   -3.0857906438   13.4408183378   -3.2097021467
 22        -15.5814673648   -3.0857906776   13.4408183050   -3.2097021641
 23        -15.5814674301   -3.0857906962   13.4408182869   -3.2097021732
Atom SCF converged after  23 iterations to a total energy of    -15.58146743

Determining parallel strategy ...
... using space-filling curve
... NGWF load balancing: max     16;  min     13;  average     15
... Projector load balancing: max     12;  min      9;  average     11
... Hubbard Projector load balancing: max      5;  min      0;  average      3
... done
Calculating Ewald energy ...
              Ewald: real-space energy =     104.502089
        Ewald: reciprocal-space energy =       6.021113
         Ewald: (sum_charge)**2 Energy =      10.555744
         Ewald: (sum_charge**2) Energy =      12.422822
                          Ewald Energy =      87.544636
Basis initialisation ...... NGWF spheres initialised
... Projector spheres initialised
... Hubbard Projector spheres initialised
... NGWF tight boxes initialised
... Tight-boxes gathered
... NGWF basis size (local,global):     288479    454335
... Nonlocal pseudopotential projector initialisation
... done
... Hubbard projector initialisation

========================== Sparse matrix information ===========================
                        Overlap matrix filling: 100.00%
                        Density kernel filling: 100.00%
              NGWF-Proj overlap matrix filling: 100.00%
      NGWF-Hubbard Proj overlap matrix filling: 100.00%
                             VW matrix filling: 100.00%
                    Hamiltonian matrix filling: 100.00%
                  NGWF diagonal matrix filling:  27.71%
                             KS matrix filling: 100.00% 
                           KSKS matrix filling: 100.00% 
================================================================================

Sparse matrix initialisation ... done
NGWF initialisation ...... done
Up spin density kernel initialisation ...... done

Writing density kernel to file "FeCO3.dkn" ... done

>>> Optimising kernel for current NGWFs:

--------------------------- Ensemble-DFT optimisation --------------------------
Running LAPACK on    2 processor(s).
Beware of serious memory limitations due to replicated large dense matrices.
Use ScaLAPACK for large systems.

################################################################################
DFT+U information on atom      1 of Hubbard species Fe  
################################################################################
  m_l =   -2          -1           0           1           2
  0.28944513 -0.14913487  0.01300962 -0.08335309  0.20250628
 -0.14913487  0.52925602  0.05250039 -0.02598468 -0.08367577
  0.01300962  0.05250039  0.16623718  0.08004956  0.05074293
 -0.08335309 -0.02598468  0.08004956  0.67245580  0.03562261
  0.20250628 -0.08367577  0.05074293  0.03562261  0.38999494
################################################################################
Total occupancy of Hubbard site      1 is         4.09477813 e
DFT+U energy of Hubbard site      1 is            0.00000000 Ha
################################################################################


################################################################################
DFT+U information on atom      1 of Hubbard species Fe  
################################################################################
  m_l =   -2          -1           0           1           2
  0.28944513 -0.14913487  0.01300962 -0.08335309  0.20250628
 -0.14913487  0.52925602  0.05250039 -0.02598468 -0.08367577
  0.01300962  0.05250039  0.16623718  0.08004956  0.05074293
 -0.08335309 -0.02598468  0.08004956  0.67245580  0.03562261
  0.20250628 -0.08367577  0.05074293  0.03562261  0.38999494
################################################################################
Total occupancy of Hubbard site      1 is         4.09477813 e
DFT+U energy of Hubbard site      1 is            0.00000000 Ha
################################################################################


--------------------------------------------------------------------------------
  Iter                              Commutator    Free_energy(A=E-TS)     DeltaA
#    0                          0.037787645833    -168.05104009704695  -1.68E+02

Step                       =       0.381966011250
Energy                     =    -168.039669305423
Entropy (-TS)              =      -0.011370791628
Free energy (A=E-TS)       =    -168.051040097047
Est. 0K Energy 0.5*(E+A)   =    -168.045354701235
Residual Non-orthogonality =       0.000000000000
Residual N_electrons       =       0.000000000004

Spin          Integrated_Ne            Fermi_level     Delta_Fermi_level
   1        38.000000000028        -0.134130549979             -1.34E-01

                           Spin 1          
     Orb      H-eigenvalues     Occupancies
       1 |    -3.2727861422    1.0000000000 | 
                          ------
      15 |    -0.3903599824    1.0000000000 | 
      16 |    -0.3876002184    1.0000000000 | 
      17 |    -0.2329090641    1.0000000000 | 
      18 |    -0.1382792328    0.7875216004 | 
      19 |    -0.1378402269    0.7634021998 | 
                 - Gap at zero temperature -
      20 |    -0.1333876584    0.4416208256 | 
      21 |    -0.1185806887    0.0073166581 | 
      22 |    -0.1059964205    0.0001385618 | 
      23 |    -0.0844633566    0.0000001544 | 
      24 |    -0.0138895454    0.0000000000 | 
                          ------
      29 |     0.3871655299    0.0000000000 | 

                       |  Abs_value |  Threshold | Converged
     Delta_Free_energy |   1.68E+02 |   1.00E-06 |        No
     Delta_Energy      |   1.68E+02 |   1.00E-04 |        No
     Delta_Entropy     |   1.14E-02 |   1.00E-04 |        No
     Commutator        |   3.78E-02 |   1.00E-05 |        No
     Delta_Fermi_level |   1.34E-01 |   1.00E-03 |        No

  Line search of the free energy minimum:
  Step_type        Step             Free_energy   Predicted_free_energy
.   Initial    0.000000     -168.05104009704695

################################################################################
DFT+U information on atom      1 of Hubbard species Fe  
################################################################################
  m_l =   -2          -1           0           1           2
  0.78881299 -0.02604197 -0.00589789 -0.02172402  0.07048413
 -0.02604197  0.88508417  0.02187305 -0.01177549  0.00551528
 -0.00589789  0.02187305  0.83676917  0.01220759  0.02772260
 -0.02172402 -0.01177549  0.01220759  0.88836917  0.01163184
  0.07048413  0.00551528  0.02772260  0.01163184  0.86634857
################################################################################
Total occupancy of Hubbard site      1 is         8.53076816 e
DFT+U energy of Hubbard site      1 is            0.00000000 Ha
################################################################################

.    Trial1    0.381966     -164.67885245601622

################################################################################
DFT+U information on atom      1 of Hubbard species Fe  
################################################################################
  m_l =   -2          -1           0           1           2
  0.39202821 -0.12104050  0.01160433 -0.05683598  0.21983873
 -0.12104050  0.46758076 -0.01173104  0.02413048 -0.09691139
  0.01160433 -0.01173104  0.35014151  0.08773373  0.03970860
 -0.05683598  0.02413048  0.08773373  0.65631556  0.07915628
  0.21983873 -0.09691139  0.03970860  0.07915628  0.55687331
################################################################################
Total occupancy of Hubbard site      1 is         4.84587872 e
DFT+U energy of Hubbard site      1 is            0.00000000 Ha
################################################################################

.    Trial2    0.145898     -168.52945552586505

################################################################################
DFT+U information on atom      1 of Hubbard species Fe  
################################################################################
  m_l =   -2          -1           0           1           2
  0.35254564 -0.13056968  0.01169817 -0.06722682  0.21693240
 -0.13056968  0.48089593  0.01785482  0.00655356 -0.09179499
  0.01169817  0.01785482  0.27807054  0.09086805  0.04534011
 -0.06722682  0.00655356  0.09086805  0.66113868  0.06738329
  0.21693240 -0.09179499  0.04534011  0.06738329  0.50016467
################################################################################
Total occupancy of Hubbard site      1 is         4.54563092 e
DFT+U energy of Hubbard site      1 is            0.00000000 Ha
################################################################################

. Quadratic    0.104916     -168.38750651177779     -168.61559536808036

################################################################################
DFT+U information on atom      1 of Hubbard species Fe  
################################################################################
  m_l =   -2          -1           0           1           2
  0.42709350 -0.11278325  0.01196068 -0.04804425  0.21994766
 -0.11278325  0.46556222 -0.03640462  0.03711504 -0.09975729
  0.01196068 -0.03640462  0.40969980  0.08291812  0.03594844
 -0.04804425  0.03711504  0.08291812  0.65398002  0.08612165
  0.21994766 -0.09975729  0.03594844  0.08612165  0.60283111
################################################################################
Total occupancy of Hubbard site      1 is         5.11833330 e
DFT+U energy of Hubbard site      1 is            0.00000000 Ha
################################################################################

.     Cubic    0.174250     -168.61229500586776     -168.56553077722131

################################################################################
DFT+U information on atom      1 of Hubbard species Fe  
################################################################################
  m_l =   -2          -1           0           1           2
  0.42709350 -0.11278325  0.01196068 -0.04804425  0.21994766
 -0.11278325  0.46556222 -0.03640462  0.03711504 -0.09975729
  0.01196068 -0.03640462  0.40969980  0.08291812  0.03594844
 -0.04804425  0.03711504  0.08291812  0.65398002  0.08612165
  0.21994766 -0.09975729  0.03594844  0.08612165  0.60283111
################################################################################
Total occupancy of Hubbard site      1 is         5.11833330 e
DFT+U energy of Hubbard site      1 is            0.00000000 Ha
################################################################################


--------------------------------------------------------------------------------
  Iter                              Commutator    Free_energy(A=E-TS)     DeltaA
#    1                          0.016366378922    -168.61229500586776  -5.61E-01

Step                       =       0.174249501486
Energy                     =    -168.602576504363
Entropy (-TS)              =      -0.009718501502
Free energy (A=E-TS)       =    -168.612295005868
Est. 0K Energy 0.5*(E+A)   =    -168.607435755115
Residual Non-orthogonality =       0.000000000000
Residual N_electrons       =      -0.000000000003

Spin          Integrated_Ne            Fermi_level     Delta_Fermi_level
   1        37.999999999990        -0.248893735768             -1.15E-01

                           Spin 1          
     Orb      H-eigenvalues     Occupancies
       1 |    -3.4332967232    1.0000000000 | 
                          ------
      15 |    -0.3627566954    1.0000000000 | 
      16 |    -0.3443293196    1.0000000000 | 
      17 |    -0.2991367407    0.9999998713 | 
      18 |    -0.2559672219    0.9032291401 | 
      19 |    -0.2522898517    0.7450546996 | 
                 - Gap at zero temperature -
      20 |    -0.2469568515    0.3516898093 | 
      21 |    -0.2154268748    0.0000257256 | 
      22 |    -0.2042492430    0.0000007542 | 
      23 |    -0.0813755781    0.0000000000 | 
      24 |    -0.0385283242    0.0000000000 | 
                          ------
      29 |     0.3944335075    0.0000000000 | 

                       |  Abs_value |  Threshold | Converged
     Delta_Free_energy |   5.61E-01 |   1.00E-06 |        No
     Delta_Energy      |   5.63E-01 |   1.00E-04 |        No
     Delta_Entropy     |   1.65E-03 |   1.00E-04 |        No
     Commutator        |   1.64E-02 |   1.00E-05 |        No
     Delta_Fermi_level |   1.15E-01 |   1.00E-03 |        No

  Line search of the free energy minimum:
  Step_type        Step             Free_energy   Predicted_free_energy
.   Initial    0.000000     -168.61229500586776

################################################################################
DFT+U information on atom      1 of Hubbard species Fe  
################################################################################
  m_l =   -2          -1           0           1           2
  0.49329715 -0.09515164  0.01706044 -0.02820349  0.21808991
 -0.09515164  0.50005267 -0.05803389  0.03044347 -0.09214140
  0.01706044 -0.05803389  0.49404689  0.05493759  0.03520570
 -0.02820349  0.03044347  0.05493759  0.63682830  0.08060146
  0.21808991 -0.09214140  0.03520570  0.08060146  0.68568807
################################################################################
Total occupancy of Hubbard site      1 is         5.61982615 e
DFT+U energy of Hubbard site      1 is            0.00000000 Ha
################################################################################

.    Trial1    0.174250     -168.66620475986221

################################################################################
DFT+U information on atom      1 of Hubbard species Fe  
################################################################################
  m_l =   -2          -1           0           1           2
  0.64485016 -0.06283976  0.00020184 -0.03198199  0.15169904
 -0.06283976  0.85417164  0.05107221 -0.03782910  0.01890931
  0.00020184  0.05107221  0.71993262  0.01412339  0.05882786
 -0.03198199 -0.03782910  0.01412339  0.81086407  0.02718052
  0.15169904  0.01890931  0.05882786  0.02718052  0.80742723
################################################################################
Total occupancy of Hubbard site      1 is         7.67449144 e
DFT+U energy of Hubbard site      1 is            0.00000000 Ha
################################################################################

.    Trial2    0.489658     -166.40077219394254

################################################################################
DFT+U information on atom      1 of Hubbard species Fe  
################################################################################
  m_l =   -2          -1           0           1           2
  0.46286549 -0.10408944  0.01488689 -0.03740229  0.22248055
 -0.10408944  0.47600709 -0.05190291  0.03542821 -0.09898377
  0.01488689 -0.05190291  0.45413807  0.06873724  0.03445555
 -0.03740229  0.03542821  0.06873724  0.64344910  0.08425304
  0.22248055 -0.09898377  0.03445555  0.08425304  0.64995305
################################################################################
Total occupancy of Hubbard site      1 is         5.37282558 e
DFT+U energy of Hubbard site      1 is            0.00000000 Ha
################################################################################

. Quadratic    0.097235     -168.66299805735161     -168.75695416712878

################################################################################
DFT+U information on atom      1 of Hubbard species Fe  
################################################################################
  m_l =   -2          -1           0           1           2
  0.48021116 -0.09916026  0.01620087 -0.03217687  0.22075762
 -0.09916026  0.48779681 -0.05640304  0.03309028 -0.09587290
  0.01620087 -0.05640304  0.47667025  0.06109699  0.03465402
 -0.03217687  0.03309028  0.06109699  0.63936654  0.08243866
  0.22075762 -0.09587290  0.03465402  0.08243866  0.67086155
################################################################################
Total occupancy of Hubbard site      1 is         5.50981264 e
DFT+U energy of Hubbard site      1 is            0.00000000 Ha
################################################################################

.     Cubic    0.141773     -168.67042437144860     -168.67539183173596

################################################################################
DFT+U information on atom      1 of Hubbard species Fe  
################################################################################
  m_l =   -2          -1           0           1           2
  0.48021116 -0.09916026  0.01620087 -0.03217687  0.22075762
 -0.09916026  0.48779681 -0.05640304  0.03309028 -0.09587290
  0.01620087 -0.05640304  0.47667025  0.06109699  0.03465402
 -0.03217687  0.03309028  0.06109699  0.63936654  0.08243866
  0.22075762 -0.09587290  0.03465402  0.08243866  0.67086155
################################################################################
Total occupancy of Hubbard site      1 is         5.50981264 e
DFT+U energy of Hubbard site      1 is            0.00000000 Ha
################################################################################


--------------------------------------------------------------------------------
  Iter                              Commutator    Free_energy(A=E-TS)     DeltaA
#    2                          0.008500923559    -168.67042437144860  -5.81E-02

Step                       =       0.141772962589
Energy                     =    -168.661394267816
Entropy (-TS)              =      -0.009030103630
Free energy (A=E-TS)       =    -168.670424371449
Est. 0K Energy 0.5*(E+A)   =    -168.665909319632
Residual Non-orthogonality =       0.000000000000
Residual N_electrons       =      -0.000000000002

Spin          Integrated_Ne            Fermi_level     Delta_Fermi_level
   1        37.999999999992        -0.271688421682             -2.28E-02

                           Spin 1          
     Orb      H-eigenvalues     Occupancies
       1 |    -3.4674967550    1.0000000000 | 
                          ------
      15 |    -0.3597083212    1.0000000000 | 
      16 |    -0.3301233264    0.9999999903 | 
      17 |    -0.3166494777    0.9999993176 | 
      18 |    -0.2819755327    0.9626160400 | 
      19 |    -0.2742098814    0.6891640444 | 
                 - Gap at zero temperature -
      20 |    -0.2697031478    0.3482138001 | 
      21 |    -0.2338552708    0.0000064801 | 
      22 |    -0.2244019135    0.0000003275 | 
      23 |    -0.0870266570    0.0000000000 | 
      24 |    -0.0446387742    0.0000000000 | 
                          ------
      29 |     0.3882352106    0.0000000000 | 

                       |  Abs_value |  Threshold | Converged
     Delta_Free_energy |   5.81E-02 |   1.00E-06 |        No
     Delta_Energy      |   5.88E-02 |   1.00E-04 |        No
     Delta_Entropy     |   6.88E-04 |   1.00E-04 |        No
     Commutator        |   8.50E-03 |   1.00E-05 |        No
     Delta_Fermi_level |   2.28E-02 |   1.00E-03 |        No

  Line search of the free energy minimum:
  Step_type        Step             Free_energy   Predicted_free_energy
.   Initial    0.000000     -168.67042437144860

################################################################################
DFT+U information on atom      1 of Hubbard species Fe  
################################################################################
  m_l =   -2          -1           0           1           2
  0.47253618 -0.09984659  0.01486623 -0.03204958  0.22756555
 -0.09984659  0.47543439 -0.04653057  0.02798995 -0.09579485
  0.01486623 -0.04653057  0.44830959  0.06185083  0.03094693
 -0.03204958  0.02798995  0.06185083  0.63648611  0.08258745
  0.22756555 -0.09579485  0.03094693  0.08258745  0.66705092
################################################################################
Total occupancy of Hubbard site      1 is         5.39963438 e
DFT+U energy of Hubbard site      1 is            0.00000000 Ha
################################################################################

.    Trial1    0.141773     -168.68281244810620

################################################################################
DFT+U information on atom      1 of Hubbard species Fe  
################################################################################
  m_l =   -2          -1           0           1           2
  0.45921464 -0.09827073  0.00844647 -0.03096497  0.24512535
 -0.09827073  0.43976492 -0.02108443  0.01795016 -0.09344536
  0.00844647 -0.02108443  0.37913996  0.06427057  0.01775780
 -0.03096497  0.01795016  0.06427057  0.63499636  0.08425044
  0.24512535 -0.09344536  0.01775780  0.08425044  0.66368532
################################################################################
Total occupancy of Hubbard site      1 is         5.15360241 e
DFT+U energy of Hubbard site      1 is            0.00000000 Ha
################################################################################

.    Trial2    0.469587     -168.66538396000021

################################################################################
DFT+U information on atom      1 of Hubbard species Fe  
################################################################################
  m_l =   -2          -1           0           1           2
  0.46895577 -0.09989798  0.01384826 -0.03193537  0.23137704
 -0.09989798  0.46814797 -0.04098045  0.02545757 -0.09554178
  0.01384826 -0.04098045  0.43283850  0.06236272  0.02855960
 -0.03193537  0.02545757  0.06236272  0.63558091  0.08278026
  0.23137704 -0.09554178  0.02855960  0.08278026  0.66562634
################################################################################
Total occupancy of Hubbard site      1 is         5.34229899 e
DFT+U energy of Hubbard site      1 is            0.00000000 Ha
################################################################################

. Quadratic    0.216862     -168.68452106132085     -168.68449997476790

################################################################################
DFT+U information on atom      1 of Hubbard species Fe  
################################################################################
  m_l =   -2          -1           0           1           2
  0.46895577 -0.09989798  0.01384826 -0.03193537  0.23137704
 -0.09989798  0.46814797 -0.04098045  0.02545757 -0.09554178
  0.01384826 -0.04098045  0.43283850  0.06236272  0.02855960
 -0.03193537  0.02545757  0.06236272  0.63558091  0.08278026
  0.23137704 -0.09554178  0.02855960  0.08278026  0.66562634
################################################################################
Total occupancy of Hubbard site      1 is         5.34229899 e
DFT+U energy of Hubbard site      1 is            0.00000000 Ha
################################################################################


--------------------------------------------------------------------------------
  Iter                              Commutator    Free_energy(A=E-TS)     DeltaA
#    3                          0.004651240233    -168.68452106132085  -1.41E-02

Step                       =       0.216861665114
Energy                     =    -168.675361580649
Entropy (-TS)              =      -0.009159480679
Free energy (A=E-TS)       =    -168.684521061321
Est. 0K Energy 0.5*(E+A)   =    -168.679941320985
Residual Non-orthogonality =       0.000000000000
Residual N_electrons       =       0.000000000007

Spin          Integrated_Ne            Fermi_level     Delta_Fermi_level
   1        38.000000000025        -0.270663614921              1.02E-03

                           Spin 1          
     Orb      H-eigenvalues     Occupancies
       1 |    -3.4640711478    1.0000000000 | 
                          ------
      15 |    -0.3616517427    1.0000000000 | 
      16 |    -0.3278413292    0.9999999856 | 
      17 |    -0.3162859222    0.9999994462 | 
      18 |    -0.2806658886    0.9592411054 | 
      19 |    -0.2731066519    0.6838344945 | 
                 - Gap at zero temperature -
      20 |    -0.2687989132    0.3569042093 | 
      21 |    -0.2363424552    0.0000196431 | 
      22 |    -0.2272600727    0.0000011160 | 
      23 |    -0.0995677515    0.0000000000 | 
      24 |    -0.0476376310    0.0000000000 | 
                          ------
      29 |     0.3701045119    0.0000000000 | 

                       |  Abs_value |  Threshold | Converged
     Delta_Free_energy |   1.41E-02 |   1.00E-06 |        No
     Delta_Energy      |   1.40E-02 |   1.00E-04 |        No
     Delta_Entropy     |   1.29E-04 |   1.00E-04 |        No
     Commutator        |   4.65E-03 |   1.00E-05 |        No
     Delta_Fermi_level |   1.02E-03 |   1.00E-03 |        No

  Line search of the free energy minimum:
  Step_type        Step             Free_energy   Predicted_free_energy
.   Initial    0.000000     -168.68452106132085

################################################################################
DFT+U information on atom      1 of Hubbard species Fe  
################################################################################
  m_l =   -2          -1           0           1           2
  0.48867634 -0.09460400  0.01381101 -0.02596832  0.22393793
 -0.09460400  0.48638604 -0.04391911  0.02679836 -0.09210870
  0.01381101 -0.04391911  0.46216128  0.05625612  0.02864596
 -0.02596832  0.02679836  0.05625612  0.63472027  0.08159248
  0.22393793 -0.09210870  0.02864596  0.08159248  0.68511576
################################################################################
Total occupancy of Hubbard site      1 is         5.51411940 e
DFT+U energy of Hubbard site      1 is            0.00000000 Ha
################################################################################

.    Trial1    0.216862     -168.68653069819658

################################################################################
DFT+U information on atom      1 of Hubbard species Fe  
################################################################################
  m_l =   -2          -1           0           1           2
  0.51958035 -0.08630293  0.01327621 -0.01949450  0.21046126
 -0.08630293  0.51623333 -0.04599462  0.02854273 -0.08554416
  0.01327621 -0.04599462  0.50619879  0.04855917  0.02985247
 -0.01949450  0.02854273  0.04855917  0.64184115  0.07797241
  0.21046126 -0.08554416  0.02985247  0.07797241  0.71215824
################################################################################
Total occupancy of Hubbard site      1 is         5.79202373 e
DFT+U energy of Hubbard site      1 is            0.00000000 Ha
################################################################################

.    Trial2    0.515994     -168.64343279289886

################################################################################
DFT+U information on atom      1 of Hubbard species Fe  
################################################################################
  m_l =   -2          -1           0           1           2
  0.47996766 -0.09694503  0.01384514 -0.02842181  0.22734642
 -0.09694503  0.47824395 -0.04277010  0.02622367 -0.09369956
  0.01384514 -0.04277010  0.44933106  0.05884135  0.02851621
 -0.02842181  0.02622367  0.05884135  0.63459298  0.08222943
  0.22734642 -0.09369956  0.02851621  0.08222943  0.67673482
################################################################################
Total occupancy of Hubbard site      1 is         5.43774095 e
DFT+U energy of Hubbard site      1 is            0.00000000 Ha
################################################################################

. Quadratic    0.124022     -168.68833660519488     -168.68909214624017

################################################################################
DFT+U information on atom      1 of Hubbard species Fe  
################################################################################
  m_l =   -2          -1           0           1           2
  0.47996766 -0.09694503  0.01384514 -0.02842181  0.22734642
 -0.09694503  0.47824395 -0.04277010  0.02622367 -0.09369956
  0.01384514 -0.04277010  0.44933106  0.05884135  0.02851621
 -0.02842181  0.02622367  0.05884135  0.63459298  0.08222943
  0.22734642 -0.09369956  0.02851621  0.08222943  0.67673482
################################################################################
Total occupancy of Hubbard site      1 is         5.43774095 e
DFT+U energy of Hubbard site      1 is            0.00000000 Ha
################################################################################


--------------------------------------------------------------------------------
  Iter                              Commutator    Free_energy(A=E-TS)     DeltaA
#    4                          0.002852274857    -168.68833660519488  -3.82E-03

Step                       =       0.124022208303
Energy                     =    -168.679266655085
Entropy (-TS)              =      -0.009069950118
Free energy (A=E-TS)       =    -168.688336605195
Est. 0K Energy 0.5*(E+A)   =    -168.683801630140
Residual Non-orthogonality =       0.000000000000
Residual N_electrons       =       0.000000000009

Spin          Integrated_Ne            Fermi_level     Delta_Fermi_level
   1        38.000000000031        -0.275888226251             -5.22E-03

                           Spin 1          
     Orb      H-eigenvalues     Occupancies
       1 |    -3.4721524136    1.0000000000 | 
                          ------
      15 |    -0.3632051023    1.0000000000 | 
      16 |    -0.3285385343    0.9999999398 | 
      17 |    -0.3204239641    0.9999992195 | 
      18 |    -0.2864959899    0.9660939292 | 
      19 |    -0.2781985664    0.6747060208 | 
                 - Gap at zero temperature -
      20 |    -0.2740549329    0.3591838382 | 
      21 |    -0.2409344018    0.0000160860 | 
      22 |    -0.2320291919    0.0000009665 | 
      23 |    -0.1030927052    0.0000000000 | 
      24 |    -0.0491239739    0.0000000000 | 
                          ------
      29 |     0.3640425745    0.0000000000 | 

                       |  Abs_value |  Threshold | Converged
     Delta_Free_energy |   3.82E-03 |   1.00E-06 |        No
     Delta_Energy      |   3.91E-03 |   1.00E-04 |        No
     Delta_Entropy     |   8.95E-05 |   1.00E-04 |       Yes
     Commutator        |   2.85E-03 |   1.00E-05 |        No
     Delta_Fermi_level |   5.22E-03 |   1.00E-03 |        No

  Line search of the free energy minimum:
  Step_type        Step             Free_energy   Predicted_free_energy
.   Initial    0.000000     -168.68833660519488

################################################################################
DFT+U information on atom      1 of Hubbard species Fe  
################################################################################
  m_l =   -2          -1           0           1           2
  0.47835200 -0.09687249  0.01292702 -0.02880658  0.22846916
 -0.09687249  0.47372175 -0.04012352  0.02632676 -0.09392471
  0.01292702 -0.04012352  0.44203502  0.05997089  0.02708868
 -0.02880658  0.02632676  0.05997089  0.63601573  0.08234233
  0.22846916 -0.09392471  0.02708868  0.08234233  0.67538220
################################################################################
Total occupancy of Hubbard site      1 is         5.41101341 e
DFT+U energy of Hubbard site      1 is            0.00000000 Ha
################################################################################

.    Trial1    0.124022     -168.68949505905681

################################################################################
DFT+U information on atom      1 of Hubbard species Fe  
################################################################################
  m_l =   -2          -1           0           1           2
  0.47410883 -0.09638309  0.01013449 -0.02970817  0.23156370
 -0.09638309  0.46121757 -0.03234924  0.02662535 -0.09410783
  0.01013449 -0.03234924  0.42174497  0.06295405  0.02280386
 -0.02970817  0.02662535  0.06295405  0.64009234  0.08273113
  0.23156370 -0.09410783  0.02280386  0.08273113  0.67193964
################################################################################
Total occupancy of Hubbard site      1 is         5.33820669 e
DFT+U energy of Hubbard site      1 is            0.00000000 Ha
################################################################################

.    Trial2    0.458616     -168.68954407797489

################################################################################
DFT+U information on atom      1 of Hubbard species Fe  
################################################################################
  m_l =   -2          -1           0           1           2
  0.47616225 -0.09667724  0.01156018 -0.02929264  0.23003738
 -0.09667724  0.46739802 -0.03626257  0.02647165 -0.09409412
  0.01156018 -0.03626257  0.43177814  0.06150646  0.02498338
 -0.02929264  0.02647165  0.06150646  0.63805337  0.08252414
  0.23003738 -0.09409412  0.02498338  0.08252414  0.67358572
################################################################################
Total occupancy of Hubbard site      1 is         5.37395500 e
DFT+U energy of Hubbard site      1 is            0.00000000 Ha
################################################################################

. Quadratic    0.294973     -168.69009051396816     -168.69008093601710

################################################################################
DFT+U information on atom      1 of Hubbard species Fe  
################################################################################
  m_l =   -2          -1           0           1           2
  0.47616225 -0.09667724  0.01156018 -0.02929264  0.23003738
 -0.09667724  0.46739802 -0.03626257  0.02647165 -0.09409412
  0.01156018 -0.03626257  0.43177814  0.06150646  0.02498338
 -0.02929264  0.02647165  0.06150646  0.63805337  0.08252414
  0.23003738 -0.09409412  0.02498338  0.08252414  0.67358572
################################################################################
Total occupancy of Hubbard site      1 is         5.37395500 e
DFT+U energy of Hubbard site      1 is            0.00000000 Ha
################################################################################


--------------------------------------------------------------------------------
  Iter                              Commutator    Free_energy(A=E-TS)     DeltaA
#    5                          0.001786289846    -168.69009051396816  -1.75E-03

Step                       =       0.294972935558
Energy                     =    -168.681009451773
Entropy (-TS)              =      -0.009081062200
Free energy (A=E-TS)       =    -168.690090513968
Est. 0K Energy 0.5*(E+A)   =    -168.685549982870
Residual Non-orthogonality =       0.000000000000
Residual N_electrons       =       0.000000000004

Spin          Integrated_Ne            Fermi_level     Delta_Fermi_level
   1        38.000000000016        -0.277110821795             -1.22E-03

                           Spin 1          
     Orb      H-eigenvalues     Occupancies
       1 |    -3.4731205065    1.0000000000 | 
                          ------
      15 |    -0.3683103929    1.0000000000 | 
      16 |    -0.3337531412    0.9999999829 | 
      17 |    -0.3214954883    0.9999991813 | 
      18 |    -0.2873694399    0.9622909061 | 
      19 |    -0.2795632741    0.6844769462 | 
                 - Gap at zero temperature -
      20 |    -0.2751949682    0.3532054613 | 
      21 |    -0.2436611734    0.0000258658 | 
      22 |    -0.2349577360    0.0000016564 | 
      23 |    -0.1124118907    0.0000000000 | 
      24 |    -0.0505057802    0.0000000000 | 
                          ------
      29 |     0.3488552607    0.0000000000 | 

                       |  Abs_value |  Threshold | Converged
     Delta_Free_energy |   1.75E-03 |   1.00E-06 |        No
     Delta_Energy      |   1.74E-03 |   1.00E-04 |        No
     Delta_Entropy     |   1.11E-05 |   1.00E-04 |       Yes
     Commutator        |   1.79E-03 |   1.00E-05 |        No
     Delta_Fermi_level |   1.22E-03 |   1.00E-03 |        No

  Line search of the free energy minimum:
  Step_type        Step             Free_energy   Predicted_free_energy
.   Initial    0.000000     -168.69009051396816

################################################################################
DFT+U information on atom      1 of Hubbard species Fe  
################################################################################
  m_l =   -2          -1           0           1           2
  0.48640393 -0.09340602  0.01418532 -0.02317670  0.22407289
 -0.09340602  0.49117521 -0.03539408  0.02144484 -0.08876409
  0.01418532 -0.03539408  0.45277252  0.05345961  0.02975166
 -0.02317670  0.02144484  0.05345961  0.62634057  0.08027569
  0.22407289 -0.08876409  0.02975166  0.08027569  0.68456636
################################################################################
Total occupancy of Hubbard site      1 is         5.48251719 e
DFT+U energy of Hubbard site      1 is            0.00000000 Ha
################################################################################

.    Trial1    0.294973     -168.68920777517627

################################################################################
DFT+U information on atom      1 of Hubbard species Fe  
################################################################################
  m_l =   -2          -1           0           1           2
  0.47995079 -0.09545760  0.01258908 -0.02691923  0.22780406
 -0.09545760  0.47647982 -0.03595485  0.02450132 -0.09207990
  0.01258908 -0.03595485  0.43969492  0.05840972  0.02679859
 -0.02691923  0.02450132  0.05840972  0.63335122  0.08168175
  0.22780406 -0.09207990  0.02679859  0.08168175  0.67771325
################################################################################
Total occupancy of Hubbard site      1 is         5.41437998 e
DFT+U energy of Hubbard site      1 is            0.00000000 Ha
################################################################################

.    Trial2    0.112670     -168.69071131273193

################################################################################
DFT+U information on atom      1 of Hubbard species Fe  
################################################################################
  m_l =   -2          -1           0           1           2
  0.48004460 -0.09542754  0.01261369 -0.02686212  0.22774920
 -0.09542754  0.47670033 -0.03594701  0.02445421 -0.09203066
  0.01261369 -0.03594701  0.43988865  0.05833483  0.02684277
 -0.02686212  0.02445421  0.05833483  0.63324032  0.08166107
  0.22774920 -0.09203066  0.02684277  0.08166107  0.67781451
################################################################################
Total occupancy of Hubbard site      1 is         5.41537681 e
DFT+U energy of Hubbard site      1 is            0.00000000 Ha
################################################################################

. Quadratic    0.115404     -168.69071239745776     -168.69071166145164

################################################################################
DFT+U information on atom      1 of Hubbard species Fe  
################################################################################
  m_l =   -2          -1           0           1           2
  0.48004460 -0.09542754  0.01261369 -0.02686212  0.22774920
 -0.09542754  0.47670033 -0.03594701  0.02445421 -0.09203066
  0.01261369 -0.03594701  0.43988865  0.05833483  0.02684277
 -0.02686212  0.02445421  0.05833483  0.63324032  0.08166107
  0.22774920 -0.09203066  0.02684277  0.08166107  0.67781451
################################################################################
Total occupancy of Hubbard site      1 is         5.41537681 e
DFT+U energy of Hubbard site      1 is            0.00000000 Ha
################################################################################


--------------------------------------------------------------------------------
  Iter                              Commutator    Free_energy(A=E-TS)     DeltaA
#    6                          0.001197354713    -168.69071239745776  -6.22E-04

Step                       =       0.115404034494
Energy                     =    -168.681592795789
Entropy (-TS)              =      -0.009119601673
Free energy (A=E-TS)       =    -168.690712397458
Est. 0K Energy 0.5*(E+A)   =    -168.686152596624
Residual Non-orthogonality =       0.000000000000
Residual N_electrons       =       0.000000000005

Spin          Integrated_Ne            Fermi_level     Delta_Fermi_level
   1        38.000000000018        -0.279783701819             -2.67E-03

                           Spin 1          
     Orb      H-eigenvalues     Occupancies
       1 |    -3.4771009849    1.0000000000 | 
                          ------
      15 |    -0.3693627208    1.0000000000 | 
      16 |    -0.3344890343    0.9999999685 | 
      17 |    -0.3236502159    0.9999990358 | 
      18 |    -0.2902394318    0.9644856646 | 
      19 |    -0.2820776280    0.6735674100 | 
                 - Gap at zero temperature -
      20 |    -0.2779880260    0.3619225091 | 
      21 |    -0.2460779891    0.0000238567 | 
      22 |    -0.2374314112    0.0000015554 | 
      23 |    -0.1137416446    0.0000000000 | 
      24 |    -0.0512945851    0.0000000000 | 
                          ------
      29 |     0.3463116354    0.0000000000 | 

                       |  Abs_value |  Threshold | Converged
     Delta_Free_energy |   6.22E-04 |   1.00E-06 |        No
     Delta_Energy      |   5.83E-04 |   1.00E-04 |        No
     Delta_Entropy     |   3.85E-05 |   1.00E-04 |       Yes
     Commutator        |   1.20E-03 |   1.00E-05 |        No
     Delta_Fermi_level |   2.67E-03 |   1.00E-03 |        No

  Line search of the free energy minimum:
  Step_type        Step             Free_energy   Predicted_free_energy
.   Initial    0.000000     -168.69071239745776

################################################################################
DFT+U information on atom      1 of Hubbard species Fe  
################################################################################
  m_l =   -2          -1           0           1           2
  0.47927821 -0.09524890  0.01242501 -0.02670972  0.22785119
 -0.09524890  0.47669250 -0.03440654  0.02382910 -0.09143363
  0.01242501 -0.03440654  0.43757697  0.05822094  0.02664871
 -0.02670972  0.02382910  0.05822094  0.63257730  0.08152327
  0.22785119 -0.09143363  0.02664871  0.08152327  0.67716615
################################################################################
Total occupancy of Hubbard site      1 is         5.40658226 e
DFT+U energy of Hubbard site      1 is            0.00000000 Ha
################################################################################

.    Trial1    0.115404     -168.69087685090210

################################################################################
DFT+U information on atom      1 of Hubbard species Fe  
################################################################################
  m_l =   -2          -1           0           1           2
  0.47702609 -0.09466083  0.01181736 -0.02625696  0.22810602
 -0.09466083  0.47670252 -0.02976485  0.02197347 -0.08956955
  0.01181736 -0.02976485  0.43069422  0.05787822  0.02600605
 -0.02625696  0.02197347  0.05787822  0.63067335  0.08110477
  0.22810602 -0.08956955  0.02600605  0.08110477  0.67522017
################################################################################
Total occupancy of Hubbard site      1 is         5.38063272 e
DFT+U energy of Hubbard site      1 is            0.00000000 Ha
################################################################################

.    Trial2    0.453290     -168.69099333670786

################################################################################
DFT+U information on atom      1 of Hubbard species Fe  
################################################################################
  m_l =   -2          -1           0           1           2
  0.47767131 -0.09483904  0.01199970 -0.02638737  0.22803991
 -0.09483904  0.47669500 -0.03111206  0.02250774 -0.09012036
  0.01199970 -0.03111206  0.43267977  0.05797754  0.02620145
 -0.02638737  0.02250774  0.05797754  0.63121172  0.08122669
  0.22803991 -0.09012036  0.02620145  0.08122669  0.67578404
################################################################################
Total occupancy of Hubbard site      1 is         5.38808368 e
DFT+U energy of Hubbard site      1 is            0.00000000 Ha
################################################################################

. Quadratic    0.356676     -168.69101620069961     -168.69101558170956

################################################################################
DFT+U information on atom      1 of Hubbard species Fe  
################################################################################
  m_l =   -2          -1           0           1           2
  0.47767131 -0.09483904  0.01199970 -0.02638737  0.22803991
 -0.09483904  0.47669500 -0.03111206  0.02250774 -0.09012036
  0.01199970 -0.03111206  0.43267977  0.05797754  0.02620145
 -0.02638737  0.02250774  0.05797754  0.63121172  0.08122669
  0.22803991 -0.09012036  0.02620145  0.08122669  0.67578404
################################################################################
Total occupancy of Hubbard site      1 is         5.38808368 e
DFT+U energy of Hubbard site      1 is            0.00000000 Ha
################################################################################


--------------------------------------------------------------------------------
  Iter                              Commutator    Free_energy(A=E-TS)     DeltaA
#    7                          0.000817318797    -168.69101620069961  -3.04E-04

Step                       =       0.356676279526
Energy                     =    -168.681791919642
Entropy (-TS)              =      -0.009224281054
Free energy (A=E-TS)       =    -168.691016200700
Est. 0K Energy 0.5*(E+A)   =    -168.686404060171
Residual Non-orthogonality =       0.000000000000
Residual N_electrons       =      -0.000000000004

Spin          Integrated_Ne            Fermi_level     Delta_Fermi_level
   1        37.999999999986        -0.282013966437             -2.23E-03

                           Spin 1          
     Orb      H-eigenvalues     Occupancies
       1 |    -3.4796880433    1.0000000000 | 
                          ------
      15 |    -0.3731209561    1.0000000000 | 
      16 |    -0.3382790791    0.9999999808 | 
      17 |    -0.3255730903    0.9999989375 | 
      18 |    -0.2921347390    0.9606792172 | 
      19 |    -0.2842856494    0.6720211716 | 
                 - Gap at zero temperature -
      20 |    -0.2802913610    0.3672678410 | 
      21 |    -0.2491155796    0.0000307839 | 
      22 |    -0.2405638524    0.0000020680 | 
      23 |    -0.1186503564    0.0000000000 | 
      24 |    -0.0524926814    0.0000000000 | 
                          ------
      29 |     0.3378293608    0.0000000000 | 

                       |  Abs_value |  Threshold | Converged
     Delta_Free_energy |   3.04E-04 |   1.00E-06 |        No
     Delta_Energy      |   1.99E-04 |   1.00E-04 |        No
     Delta_Entropy     |   1.05E-04 |   1.00E-04 |        No
     Commutator        |   8.17E-04 |   1.00E-05 |        No
     Delta_Fermi_level |   2.23E-03 |   1.00E-03 |        No

  Line search of the free energy minimum:
  Step_type        Step             Free_energy   Predicted_free_energy
.   Initial    0.000000     -168.69101620069961

################################################################################
DFT+U information on atom      1 of Hubbard species Fe  
################################################################################
  m_l =   -2          -1           0           1           2
  0.48396742 -0.09286535  0.01243885 -0.02421616  0.22450645
 -0.09286535  0.48673804 -0.03175800  0.02138823 -0.08775121
  0.01243885 -0.03175800  0.44446657  0.05478357  0.02725433
 -0.02421616  0.02138823  0.05478357  0.62923572  0.08007904
  0.22450645 -0.08775121  0.02725433  0.08007904  0.68150377
################################################################################
Total occupancy of Hubbard site      1 is         5.45182305 e
DFT+U energy of Hubbard site      1 is            0.00000000 Ha
################################################################################

.    Trial1    0.356676     -168.69052490696484

################################################################################
DFT+U information on atom      1 of Hubbard species Fe  
################################################################################
  m_l =   -2          -1           0           1           2
  0.48003047 -0.09409237  0.01216835 -0.02555319  0.22669990
 -0.09409237  0.48051708 -0.03136020  0.02207210 -0.08921694
  0.01216835 -0.03136020  0.43714291  0.05675376  0.02659220
 -0.02555319  0.02207210  0.05675376  0.63039929  0.08079323
  0.22669990 -0.08921694  0.02659220  0.08079323  0.67793309
################################################################################
Total occupancy of Hubbard site      1 is         5.41204567 e
DFT+U energy of Hubbard site      1 is            0.00000000 Ha
################################################################################

.    Trial2    0.136238     -168.69113798762376

################################################################################
DFT+U information on atom      1 of Hubbard species Fe  
################################################################################
  m_l =   -2          -1           0           1           2
  0.47959789 -0.09422863  0.01213779 -0.02570429  0.22694411
 -0.09422863  0.47982170 -0.03131524  0.02215049 -0.08938113
  0.01213779 -0.03131524  0.43632883  0.05697570  0.02652019
 -0.02570429  0.02215049  0.05697570  0.63054175  0.08087237
  0.22694411 -0.08938113  0.02652019  0.08087237  0.67753953
################################################################################
Total occupancy of Hubbard site      1 is         5.40765940 e
DFT+U energy of Hubbard site      1 is            0.00000000 Ha
################################################################################

. Quadratic    0.111498     -168.69114323369976     -168.69114429454916

################################################################################
DFT+U information on atom      1 of Hubbard species Fe  
################################################################################
  m_l =   -2          -1           0           1           2
  0.47959789 -0.09422863  0.01213779 -0.02570429  0.22694411
 -0.09422863  0.47982170 -0.03131524  0.02215049 -0.08938113
  0.01213779 -0.03131524  0.43632883  0.05697570  0.02652019
 -0.02570429  0.02215049  0.05697570  0.63054175  0.08087237
  0.22694411 -0.08938113  0.02652019  0.08087237  0.67753953
################################################################################
Total occupancy of Hubbard site      1 is         5.40765940 e
DFT+U energy of Hubbard site      1 is            0.00000000 Ha
################################################################################


--------------------------------------------------------------------------------
  Iter                              Commutator    Free_energy(A=E-TS)     DeltaA
#    8                          0.000576716700    -168.69114323369976  -1.27E-04

Step                       =       0.111497612954
Energy                     =    -168.681912253076
Entropy (-TS)              =      -0.009230980619
Free energy (A=E-TS)       =    -168.691143233700
Est. 0K Energy 0.5*(E+A)   =    -168.686527743388
Residual Non-orthogonality =       0.000000000000
Residual N_electrons       =      -0.000000000006

Spin          Integrated_Ne            Fermi_level     Delta_Fermi_level
   1        37.999999999980        -0.283393404798             -1.38E-03

                           Spin 1          
     Orb      H-eigenvalues     Occupancies
       1 |    -3.4817167442    1.0000000000 | 
                          ------
      15 |    -0.3736525639    1.0000000000 | 
      16 |    -0.3386225090    0.9999999733 | 
      17 |    -0.3267103949    0.9999988531 | 
      18 |    -0.2935670300    0.9613048345 | 
      19 |    -0.2856260204    0.6692963524 | 
                 - Gap at zero temperature -
      20 |    -0.2816993860    0.3693680487 | 
      21 |    -0.2504049413    0.0000299206 | 
      22 |    -0.2418647658    0.0000020174 | 
      23 |    -0.1191358022    0.0000000000 | 
      24 |    -0.0529081886    0.0000000000 | 
                          ------
      29 |     0.3367983903    0.0000000000 | 

                       |  Abs_value |  Threshold | Converged
     Delta_Free_energy |   1.27E-04 |   1.00E-06 |        No
     Delta_Energy      |   1.20E-04 |   1.00E-04 |        No
     Delta_Entropy     |   6.70E-06 |   1.00E-04 |       Yes
     Commutator        |   5.77E-04 |   1.00E-05 |        No
     Delta_Fermi_level |   1.38E-03 |   1.00E-03 |        No

  Line search of the free energy minimum:
  Step_type        Step             Free_energy   Predicted_free_energy
.   Initial    0.000000     -168.69114323369976

################################################################################
DFT+U information on atom      1 of Hubbard species Fe  
################################################################################
  m_l =   -2          -1           0           1           2
  0.47929956 -0.09410525  0.01192504 -0.02575541  0.22690882
 -0.09410525  0.47967435 -0.03067212  0.02199811 -0.08906961
  0.01192504 -0.03067212  0.43535927  0.05701096  0.02625376
 -0.02575541  0.02199811  0.05701096  0.63065740  0.08079751
  0.22690882 -0.08906961  0.02625376  0.08079751  0.67716089
################################################################################
Total occupancy of Hubbard site      1 is         5.40430293 e
DFT+U energy of Hubbard site      1 is            0.00000000 Ha
################################################################################

.    Trial1    0.111498     -168.69117459120847

################################################################################
DFT+U information on atom      1 of Hubbard species Fe  
################################################################################
  m_l =   -2          -1           0           1           2
  0.47838372 -0.09370886  0.01125571 -0.02591725  0.22677836
 -0.09370886  0.47923595 -0.02867602  0.02153345 -0.08808092
  0.01125571 -0.02867602  0.43238250  0.05711683  0.02541410
 -0.02591725  0.02153345  0.05711683  0.63103547  0.08056130
  0.22677836 -0.08808092  0.02541410  0.08056130  0.67597810
################################################################################
Total occupancy of Hubbard site      1 is         5.39403149 e
DFT+U energy of Hubbard site      1 is            0.00000000 Ha
################################################################################

.    Trial2    0.450875     -168.69120862753320

################################################################################
DFT+U information on atom      1 of Hubbard species Fe  
################################################################################
  m_l =   -2          -1           0           1           2
  0.47850514 -0.09376294  0.01134584 -0.02589537  0.22679757
 -0.09376294  0.47929287 -0.02894251  0.02159477 -0.08821478
  0.01134584 -0.02894251  0.43277715  0.05710300  0.02552729
 -0.02589537  0.02159477  0.05710300  0.63098336  0.08059317
  0.22679757 -0.08821478  0.02552729  0.08059317  0.67613668
################################################################################
Total occupancy of Hubbard site      1 is         5.39539038 e
DFT+U energy of Hubbard site      1 is            0.00000000 Ha
################################################################################

. Quadratic    0.406135     -168.69120946636892     -168.69120943088313

################################################################################
DFT+U information on atom      1 of Hubbard species Fe  
################################################################################
  m_l =   -2          -1           0           1           2
  0.47850514 -0.09376294  0.01134584 -0.02589537  0.22679757
 -0.09376294  0.47929287 -0.02894251  0.02159477 -0.08821478
  0.01134584 -0.02894251  0.43277715  0.05710300  0.02552729
 -0.02589537  0.02159477  0.05710300  0.63098336  0.08059317
  0.22679757 -0.08821478  0.02552729  0.08059317  0.67613668
################################################################################
Total occupancy of Hubbard site      1 is         5.39539038 e
DFT+U energy of Hubbard site      1 is            0.00000000 Ha
################################################################################


--------------------------------------------------------------------------------
  Iter                              Commutator    Free_energy(A=E-TS)     DeltaA
#    9                          0.000384326076    -168.69120946636892  -6.62E-05

Step                       =       0.406134637801
Energy                     =    -168.681917150118
Entropy (-TS)              =      -0.009292316240
Free energy (A=E-TS)       =    -168.691209466369
Est. 0K Energy 0.5*(E+A)   =    -168.686563308244
Residual Non-orthogonality =       0.000000000000
Residual N_electrons       =      -0.000000000011

Spin          Integrated_Ne            Fermi_level     Delta_Fermi_level
   1        37.999999999962        -0.285116227823             -1.72E-03

                           Spin 1          
     Orb      H-eigenvalues     Occupancies
       1 |    -3.4838091708    1.0000000000 | 
                          ------
      15 |    -0.3758384222    1.0000000000 | 
      16 |    -0.3406976880    0.9999999761 | 
      17 |    -0.3282173530    0.9999987722 | 
      18 |    -0.2950447046    0.9583201913 | 
      19 |    -0.2873653287    0.6704475418 | 
                 - Gap at zero temperature -
[...]
DFT+U energy of Hubbard site      1 is            0.00000000 Ha
################################################################################

.    Trial1    0.381966     -169.12072409839146

################################################################################
DFT+U information on atom      1 of Hubbard species Fe  
################################################################################
  m_l =   -2          -1           0           1           2
  0.45302187 -0.08400713  0.00777879 -0.03177924  0.20330735
 -0.08400713  0.51301197  0.02853741  0.00208630 -0.05651309
  0.00777879  0.02853741  0.38593108  0.06109304  0.04418500
 -0.03177924  0.00208630  0.06109304  0.62613821  0.06163985
  0.20330735 -0.05651309  0.04418500  0.06163985  0.65267330
################################################################################
Total occupancy of Hubbard site      1 is         5.26155287 e
DFT+U energy of Hubbard site      1 is            0.00000000 Ha
################################################################################

.    Trial2    0.145898     -169.12072409759207

################################################################################
DFT+U information on atom      1 of Hubbard species Fe  
################################################################################
  m_l =   -2          -1           0           1           2
  0.45301582 -0.08400646  0.00776687 -0.03178870  0.20331629
 -0.08400646  0.51297546  0.02853938  0.00209953 -0.05651431
  0.00776687  0.02853938  0.38591162  0.06110399  0.04416602
 -0.03178870  0.00209953  0.06110399  0.62616910  0.06164587
  0.20331629 -0.05651431  0.04416602  0.06164587  0.65267154
################################################################################
Total occupancy of Hubbard site      1 is         5.26148710 e
DFT+U energy of Hubbard site      1 is            0.00000000 Ha
################################################################################

.    Trial3    0.055728     -169.12072408510329

################################################################################
DFT+U information on atom      1 of Hubbard species Fe  
################################################################################
  m_l =   -2          -1           0           1           2
  0.45303153 -0.08400821  0.00779785 -0.03176414  0.20329306
 -0.08400821  0.51307027  0.02853422  0.00206517 -0.05651115
  0.00779785  0.02853422  0.38596220  0.06107554  0.04421533
 -0.03176414  0.00206517  0.06107554  0.62608886  0.06163024
  0.20329306 -0.05651115  0.04421533  0.06163024  0.65267609
################################################################################
Total occupancy of Hubbard site      1 is         5.26165792 e
DFT+U energy of Hubbard site      1 is            0.00000000 Ha
################################################################################

.     Cubic    0.289914     -169.12072410356225     -169.12072415533549

################################################################################
DFT+U information on atom      1 of Hubbard species Fe  
################################################################################
  m_l =   -2          -1           0           1           2
  0.45302733 -0.08400774  0.00778956 -0.03177071  0.20329927
 -0.08400774  0.51304492  0.02853561  0.00207436 -0.05651200
  0.00778956  0.02853561  0.38594867  0.06108315  0.04420214
 -0.03177071  0.00207436  0.06108315  0.62611032  0.06163442
  0.20329927 -0.05651200  0.04420214  0.06163442  0.65267488
################################################################################
Total occupancy of Hubbard site      1 is         5.26161225 e
DFT+U energy of Hubbard site      1 is            0.00000000 Ha
################################################################################

.   Quartic    0.227307     -169.12072410307931     -169.12072411085649

################################################################################
DFT+U information on atom      1 of Hubbard species Fe  
################################################################################
  m_l =   -2          -1           0           1           2
  0.45301212 -0.08400604  0.00775958 -0.03179448  0.20332176
 -0.08400604  0.51295313  0.02854058  0.00210763 -0.05651506
  0.00775958  0.02854058  0.38589972  0.06111070  0.04415441
 -0.03179448  0.00210763  0.06111070  0.62618800  0.06164954
  0.20332176 -0.05651506  0.04415441  0.06164954  0.65267046
################################################################################
Total occupancy of Hubbard site      1 is         5.26144686 e
DFT+U energy of Hubbard site      1 is            0.00000000 Ha
################################################################################

.    Trial6    0.000557     -169.12072407415971

################################################################################
DFT+U information on atom      1 of Hubbard species Fe  
################################################################################
  m_l =   -2          -1           0           1           2
  0.45303153 -0.08400821  0.00779785 -0.03176414  0.20329306
 -0.08400821  0.51307027  0.02853422  0.00206517 -0.05651115
  0.00779785  0.02853422  0.38596220  0.06107554  0.04421533
 -0.03176414  0.00206517  0.06107554  0.62608886  0.06163024
  0.20329306 -0.05651115  0.04421533  0.06163024  0.65267609
################################################################################
Total occupancy of Hubbard site      1 is         5.26165792 e
DFT+U energy of Hubbard site      1 is            0.00000000 Ha
################################################################################

.  NoMinFnd    0.289914     -169.12072410356225

################################################################################
DFT+U information on atom      1 of Hubbard species Fe  
################################################################################
  m_l =   -2          -1           0           1           2
  0.45303153 -0.08400821  0.00779785 -0.03176414  0.20329306
 -0.08400821  0.51307027  0.02853422  0.00206517 -0.05651115
  0.00779785  0.02853422  0.38596220  0.06107554  0.04421533
 -0.03176414  0.00206517  0.06107554  0.62608886  0.06163024
  0.20329306 -0.05651115  0.04421533  0.06163024  0.65267609
################################################################################
Total occupancy of Hubbard site      1 is         5.26165792 e
DFT+U energy of Hubbard site      1 is            0.00000000 Ha
################################################################################


--------------------------------------------------------------------------------
  Iter                              Commutator    Free_energy(A=E-TS)     DeltaA
#    1                          0.000006978131    -169.12072410356225   2.22E-08

Step                       =       0.289914113446
Energy                     =    -169.109793122455
Entropy (-TS)              =      -0.010930981103
Free energy (A=E-TS)       =    -169.120724103562
Est. 0K Energy 0.5*(E+A)   =    -169.115258613008
Residual Non-orthogonality =       0.000000000000
Residual N_electrons       =      -0.000000000004

Spin          Integrated_Ne            Fermi_level     Delta_Fermi_level
   1        37.999999999982        -0.232912841070              7.55E-06

                           Spin 1          
     Orb      H-eigenvalues     Occupancies
       1 |    -3.4069297942    1.0000000000 | 
                          ------
      15 |    -0.3165045396    1.0000000000 | 
      16 |    -0.2889129836    0.9999999791 | 
      17 |    -0.2780746654    0.9999993595 | 
      18 |    -0.2391482619    0.8775026145 | 
      19 |    -0.2349399582    0.6547790031 | 
                 - Gap at zero temperature -
      20 |    -0.2324687229    0.4649969942 | 
      21 |    -0.2142076261    0.0027139298 | 
      22 |    -0.1957940319    0.0000081198 | 
      23 |    -0.0512708295    0.0000000000 | 
      24 |    -0.0184673019    0.0000000000 | 
                          ------
      29 |     0.2456464981    0.0000000000 | 

                       |  Abs_value |  Threshold | Converged
     Delta_Free_energy |   2.22E-08 |   1.00E-06 |       Yes
     Delta_Energy      |   1.51E-06 |   1.00E-04 |       Yes
     Delta_Entropy     |   1.49E-06 |   1.00E-04 |       Yes
     Commutator        |   6.98E-06 |   1.00E-05 |       Yes
     Delta_Fermi_level |   7.55E-06 |   1.00E-03 |       Yes
EDFT occupancies loop converged after    1 iterations.

<QC>             [commutator]:         0.000006978131
<QC>       [delta_lagrangian]:         0.000000022237
<QC>           [delta_energy]:         0.000001513915
<QC>          [delta_entropy]:        -0.000001491665
<QC>                   [iter]:                      1
<QC>               [edft%num]:                     29
<QC>            [edft%nbands]:                     29
<QC>       [edft%free_energy]:      -169.120724103562
<QC>            [edft%energy]:      -169.109793122455
<QC>           [edft%entropy]:        -0.010930981103
<QC>        [orth_residue(1)]:         0.000000000000
<QC>               [fermi(1)]:        -0.232912841070
<QC>       [integrated_ne(1)]:        18.999999999991

Writing density kernel to file "FeCO3.dkn" ... done


>>> Density kernel optimised for the current NGWF basis:
     ~~~~~~~~~~~~~~~~~~~~~~~~~~~~~~~~~~~~~~~~~~~~~~~~~~~~~~~~~~~
     Total free energy           =  -1.69120724103562E+02  Eh
     [H,K] commutator            =   6.9781E-06
     ~~~~~~~~~~~~~~~~~~~~~~~~~~~~~~~~~~~~~~~~~~~~~~~~~~~~~~~~~~~




################################################################################
########################### NGWF CG iteration  020 #############################
################################################################################
****** Reciprocal space K.E. preconditioning with k_zero =  3.0000 a0^-1 *******

>>> Checking for convergence of NGWFs: 
           ........................................................
           |         *** NGWF optimisation converged ***          |
           | RMS NGWF gradient =    0.00000137602645              |
           | Criteria satisfied:                                  |
           | -> RMS NGWF gradient lower than set threshold.       |
           ========================================================

################################################################################
DFT+U information on atom      1 of Hubbard species Fe  
################################################################################
  m_l =   -2          -1           0           1           2
  0.45303153 -0.08400821  0.00779785 -0.03176414  0.20329306
 -0.08400821  0.51307027  0.02853422  0.00206517 -0.05651115
  0.00779785  0.02853422  0.38596220  0.06107554  0.04421533
 -0.03176414  0.00206517  0.06107554  0.62608886  0.06163024
  0.20329306 -0.05651115  0.04421533  0.06163024  0.65267609
################################################################################
Total occupancy of Hubbard site      1 is         5.26165792 e
DFT+U energy of Hubbard site      1 is            0.00000000 Ha
################################################################################


================================================================================
           ---------------- ENERGY COMPONENTS (Eh) ----------------
           | Kinetic                    :       81.70176321227342 |
           | Pseudopotential (local)    :     -520.90506483790352 |
           | Pseudo (non-coul chg cor)  :        0.00000000000000
           | Pseudopotential (non-local):      -22.71419825679764 |
           | Hartree                    :      229.25473639996426 |
           | Exchange-correlation       :      -23.99166591869339 |
           | Hubbard DFT+U correction   :        0.00000000000000 |
           | Ewald                      :       87.54463627870230 |
           | Total                      :     -169.10979312245462 |
           --------------------------------------------------------
           ------ LOCAL ENERGY COMPONENTS FROM MATRIX TRACES ------
           | Pseudopotential (local)    :     -520.90506483790114 |
           | Hartree                    :      229.25473639996090 |
           --------------------------------------------------------
           Integrated density           :       37.99999999998131
           Integrated density tr(KS)    :       37.99999999998175
================================================================================


                        <<<<< CALCULATION SUMMARY >>>>>                         
|ITER|    RMS GRADIENT   |     TOTAL ENERGY    |   step   |     Epredicted              
   0     0.00092882441265   -168.69123898178114   0.764820   -169.04394218296440        
   1     0.00041868480214   -169.02745781314829   0.693352   -169.08939075422089        
   2     0.00025634092006   -169.08589080376947   0.724059   -169.11001991222415        
   3     0.00014232686222   -169.10691940014209   1.125562   -169.11759775757423        
   4     0.00009970545078   -169.11493401513664   0.519814   -169.11769630476863        
   5     0.00005004250946   -169.11764431265186   1.016807   -169.11897891973865        
   6     0.00004683394339   -169.11873641237133   1.046720   -169.11974365747719        
   7     0.00004187969852   -169.11943335059411   0.777818   -169.11997649198673        
   8     0.00003417725868   -169.11988664816070   0.418313   -169.12014783982750        
   9     0.00002053451087   -169.12018252475443   1.106967   -169.12046500181356        
  10     0.00001755477793   -169.12041151920511   0.650252   -169.12049517742227        
  11     0.00001278800573   -169.12048473442135   1.065663   -169.12056768008227        
  12     0.00001541429112   -169.12055469934077   0.484330   -169.12061621296112        
  13     0.00000866943455   -169.12062017832932   0.707238   -169.12065035918613        
  14     0.00000793933653   -169.12065030014415   1.283406   -169.12069344847944        
  15     0.00000762349656   -169.12067934242054   0.638254   -169.12069268247669        
  16     0.00000707409703   -169.12069124597565   0.701046   -169.12070999901556        
  17     0.00000599809390   -169.12071103359102   0.612828   -169.12072314027409        
  18     0.00000244881508   -169.12072285112836   0.408093   -169.12072405403356        
  19     0.00000137602645   -169.12072410356225  <-- CG                                 
 
<QC>        [NGWF iterations]:                     20
<QC>           [total_energy]:      -169.120724103562
<QC>           [rms_gradient]:         0.000001376026

------------------------------ TIMING INFORMATION ------------------------------
AVERAGE TIME:     400.806s on      2 node(s)                                    
TOTAL TIME:       400.807s on      2 node(s)                                    
================= AVERAGE TIMINGS FROM ALL NODES (CUMULATIVE) ==================
|| TAG                                    #calls    cpu time   %total  Gflops ||
|| hubbard_species_proj                 :     1        0.00s   0.000%  ------ ||
|| work_imbalance                       :     1        0.00s   0.000%  ------ ||
|| ewald_calculate_energy               :     1        0.00s   0.000%  ------ ||
|| sparse_init                          :     1        0.00s   0.000%  ------ ||
|| sparse_set_to_garbage                :   348        0.00s   0.000%  ------ ||
|| hubbard_projection_mtx               :    39        0.00s   0.001%  ------ ||
|| pseudopotentials_nonlocal_mat        :    39        0.01s   0.001%  ------ ||
|| restart_kernel_write                 :    21        0.01s   0.001%  ------ ||
|| ngwf_gradient_coeffs                 :    20        0.01s   0.002%  ------ ||
|| hubbard_ham_matrix                   :   140        0.01s   0.002%  ------ ||
|| linalg_dsyev_lt                      :   609        0.02s   0.005%  ------ || (1 nodes only)
|| hubbard_projector_ham                :   139        0.02s   0.004%  ------ ||
|| pseudo_make_structure_factor         :     1        0.02s   0.006%  ------ ||
|| basis_extract_function_from_box      :   580        0.03s   0.007%  ------ ||
|| pseudopotentials_local_on_grid       :     1        0.05s   0.011%  ------ ||
|| dense_eigensolve                     :   428        0.06s   0.014%  ------ ||
|| edft_diag_ngwf_ham                   :   428        0.07s   0.016%  ------ ||
|| sparse_trace                         :  3318        0.07s   0.017%  ------ ||
|| density_init_guess_real              :     1        0.14s   0.034%  ------ ||
|| hubbard_energy_total                 :   609        0.17s   0.042%  ------ ||
|| edft_apply_smearing_operator         :   428        0.20s   0.049%  ------ ||
|| ngwfs_initialise_from_radial         :     1        0.24s   0.060%  ------ ||
|| sparse_product                       :  4269        0.26s   0.065%  ------ ||
|| restart_ngwfs_tightbox_output        :    19        0.76s   0.189%  ------ ||
|| function_ops_brappd_ketppd           :    77        0.80s   0.199%  ------ ||
|| fourier_apply_box_pair               :   872        1.25s   0.311%  55.193 ||
|| basis_copy_function_to_box           :  9802        1.69s   0.421%  ------ ||
|| cell_grid_extract_box_real           :  2688        1.89s   0.471%  ------ ||
|| integrals_kinetic                    :    39        2.09s   0.520%  ------ ||
|| basis_dot_function_with_box          : 85419        2.79s   0.695%  ------ ||
|| integrals_locpot_mat_els_batch       :   148        3.23s   0.805%  ------ ||
|| projectors_init_fftbox_recip         :   118        4.49s   1.120%  ------ ||
|| cell_grid_deposit_box_real           :  7524        4.53s   1.130%  ------ ||
|| projectors_func_ovlp_box             :    78        5.32s   1.327%  ------ ||
|| hamiltonian_energy_components        :     4        5.69s   1.419%  ------ ||
|| basis_add_function_to_box            : 231.3k       7.55s   1.883%  ------ ||
|| density_batch_row_sums               :   470        8.56s   2.135%  ------ ||
|| density_fftbox_deposit_to_cell       :  7520        8.85s   2.209%  ------ ||
|| hartree_on_grid                      :   471       17.33s   4.324%  ------ ||
|| projectors_gradient_batch            :    40       17.64s   4.402%  ------ ||
|| ngwf_gradient_build_batch            :    20       31.35s   7.821%  ------ ||
|| ngwf_gradient_batch                  :    20       40.73s  10.161%  ------ ||
|| fourier_apply_cell_backward          :  2356       40.84s  10.188%  10.651 ||
|| ngwf_gradient_lnv                    :    20       42.65s  10.640%  ------ ||
|| fourier_apply_cell_forward           :  2355       43.17s  10.770%  10.071 ||
|| potential_apply_to_ngwf_batch        :   148       52.00s  12.974%  ------ ||
|| integrals_locpot_dbl_grid            :   148       55.35s  13.811%  ------ ||
|| xc_energy_potential                  :   471       92.20s  23.003%  ------ ||
|| fourier_apply_box                    : 21489      101.31s  25.275%  78.708 ||
|| density_fftbox_interpolate_multiply  :  7520      122.85s  30.652%  ------ ||
|| density_batch_interp_deposit         :   470      155.38s  38.767%  ------ ||
|| density_on_dbl_grid                  :   470      167.72s  41.846%  ------ ||
|| hamiltonian_lhxc_calculate           :   466      286.39s  71.454%  ------ ||
|| edft_calculate                       :    20      326.52s  81.465%  ------ ||
|| ngwf_cg_optimise                     :     1      398.74s  99.484%  ------ ||
|| total_time                           :     1      400.81s 100.000%  ------ ||
================================================================================
Overhead of generating timer report: 
- 0 ms averaging over threads,
- 0 ms ensuring consistency across MPI ranks,
- 0 ms printing in order.

Job completed: 10-02-2020 16:58 (+0100)

