 +---------------------------------------------------------------+
 |                                                               |
 |        ####### #     # ####### ####### ####### ######         |
 |        #     # ##    # #          #    #       #     #        |
 |        #     # # #   # #          #    #       #     #        |
 |        #     # #  #  # #####      #    #####   ######         |
 |        #     # #   # # #          #    #       #              |
 |        #     # #    ## #          #    #       #              |
 |        ####### #     # #######    #    ####### #              |
 |                                                               |
 |        Linear-Scaling Ab Initio Total Energy Program          |
 |                                                               |
 |          Release for academic collaborators of ODG            |
 |                                              Version 3.0.3    |
 |                                                               |
 +---------------------------------------------------------------+
 |                                                               |
 |  Authors:                                                     |
 |  Peter D. Haynes, Nicholas D. M. Hine, Arash. A. Mostofi,     |
 |  Mike C. Payne and Chris-Kriton Skylaris                      |
 |                                                               |
 |  Contributors:                                                |
 |  P. W. Avraam, S. J. Clark, O. Dieguez, S. M. M. Dubois,      |
 |  J. Dziedzic, H. H. Helal, Q. O. Hill, D. D. O`Regan,         |
 |  C. J. Pickard, M. I. J. Probert, L. Ratcliff, M. Robinson    |
 |  and A. Ruiz Serrano                                          |
 |                                                               |
 |                                   Copyright (c) 2004-2011     |
 |                                                               |
 |  Please cite:                                                 |
 |  "Introducing ONETEP: Linear-scaling density functional       |
 |   simulations on parallel computers".                         |
 |   C.-K. Skylaris, P. D. Haynes, A. A. Mostofi, M. C. Payne.   |
 |   J. Chem. Phys. 122 084119 (2005).                           |
 |                                                               |
 |          in all publications arising from your use of ONETEP. |
 |                                                               |
 +---------------------------------------------------------------+
 |                                                               |
 |   ONETEP is based on developments described in the following  |
 |   publications:                                               |
 |                                                               |
 |  "Nonorthogonal generalized Wannier function pseudopotential  |
 |   plane-wave method".                                         |
 |   C.-K. Skylaris, A. A. Mostofi, P. D. Haynes, O. Dieguez,    |
 |   M. C. Payne.                                                |
 |   Phys. Rev. B 66 035119 (2002).                              |
 |                                                               |
 |  "Preconditioned iterative minimization for linear-scaling    |
 |   electronic structure calculations".                         |
 |   A. A. Mostofi, P. D. Haynes, C.-K. Skylaris, M. C. Payne.   |
 |   J. Chem. Phys. 119(17), pp.8842-8848 (2003).                |
 |                                                               |
 |  "Total-energy calculations on a real space grid with         |
 |   localized functions and a plane-wave basis".                |
 |   A. A. Mostofi, C.-K. Skylaris, P. D. Haynes, M. C. Payne.   |
 |   Comput. Phys. Commun. 147, pp.788-802 (2002).               |
 |                                                               |
 |  "Accurate kinetic energy evaluation in electronic structure  |
 |   calculations with localized functions on real space grids"  |
 |   C.-K. Skylaris, A. A. Mostofi, P. D. Haynes, C. J. Pickard, |
 |   M. C. Payne.                                                |
 |   Comput. Phys. Commun. 140, pp.315-322 (2001).               |
 |                                                               |
 +---------------------------------------------------------------+

Job started: 21-09-2011 16:46 (+0100)

Running on     4 processors.

Reading parameters from file "hchain_cond.dat" ...
WARNING: read_denskern overridden to T because of task COND.


WARNING: read_tightbox_ngwfs overridden to T because of task COND.

... done
Reading geometry and species blocks from file "hchain_cond.dat" ...    
  PSINC grid spacing along a1 set to   0.500000000000a0 from input file.
  PSINC grid spacing along a2 set to   0.500000000000a0 from input file.
  PSINC grid spacing along a3 set to   0.500000000000a0 from input file.
... done
-------------------------------------------------------------------------------
---------------------------- RUN-TIME PARAMETERS ------------------------------
-------------------------------------------------------------------------------
task                       : COND *! Type of calculation (String)               
cutoffenergy               : 20.0000000000000      hartree *! Plane wave kineti 
kernelcutoff               : 1000.00000000000 *! Density kernel radius in Bohr  
xcfunctional               : LDA *! Exchange-correlation functional (String)    
libxcxfuncid               : 0 *! Functional identifier for which exchange func 
libxccfuncid               : 0 *! Functional identifier for which correlation f 
charge                     : 0.000000000000000E+000 *! The total charge of the  
spin                       : 20 *! Total spin of system (Integer)               
spinpolarized              : F *! Switch for spin polarization (Boolean)        
spinpolarised              : F *! Switch for spin polarisation (Boolean)        
constantefield             : 0.0 0.0 0.0 *! Cartesian coordinates of constant e 
fftboxpref                 : 45 45 45 *! Preferred FFT box dimensions (String)  
ppdnpoints                 : 0 0 0 *! PPD edge length in grid points for each l 
psincspacing               : 0.5 0.5 0.5 *! PSINC grid spacing in atomic units  
oldinput                   : F *! Read old-format input file (Boolean)          
develcode                  : *! For development code only (String)              
nnho                       : F *! Initialise NGWFs to nonorthogonal natural hyb 
ngwfhalo                   : -1.00000000000000 *! Halo extension to NGWF radii  
nonscforces                : F *! Include non self-consistent forces due to NGW 
maxitpalsermano            : -1 *! Maximum number of iterations for Palser-Mano 
maxitpen                   : 3 *! Max number of penalty functional iterations ( 
penparam                   : 4.00000000000000 *! Penalty functional parameter ( 
minitlnv                   : 4 *! Min number of LNV iterations (Integer)        
maxitlnv                   : 4 *! Max number of LNV iterations (Integer)        
maxitlnvcoarse             : 0 *! Max number of low-accuracy LNV iterations (In 
lnvthresholdorig           : 1.000000000000000E-009 *! LNV convergence threshol 
lnvcgtype                  : LNV_FLETCHER *! Type of CG coefficient for LNV den 
lnvcgmaxstep               : 3.00000000000000 *! Maximum length of trial step f 
exactlnv                   : T *! Use original LNV algorithm (Boolean)          
oldlnv                     : F *! Use LNV algorithm backwards compatible pre De 
lnvchecktrialsteps         : F *! Check stability of kernel at each trial step  
kerfix                     : 1 *! Density kernel fixing approach (Integer)      
maxitkernelfix             : 3 *! Maximum # iterations of Penalty Functional id 
initialdensrealspace       : F *! Construct initial density in real space from  
kerneldiis                 : F *! Use kernel DIIS in the inner loop (Boolean)   
kerneldiistype             : P *! Density mixing method (String)                
kerneldiismax              : 10 *! Max number of kernels saved during kernel DI 
kerneldiismaxit            : 25 *! Max number of kernel DIIS iterations (Intege 
kerneldiisthres            : 1.000000000000000E-009 *! Density mixing convergen 
kerneldiisliter            : 5 *! Number of linear mixing iterations (Integer)  
kerneldiiscin              : 0.900000000000000 *! Coefficient for the input ker 
kerneldiiscriteria         : 1000 *! Density mixing convergence criteria (Strin 
maxitngwfcg                : 30 *! Max number of NGWF conjugate gradients (CG)  
ngwfcgtype                 : NGWF_FLETCHER *! Type of CG coefficient for NGWF o 
ngwfcgmaxstep              : 4.00000000000000 *! Maximum length of trial step f 
eleccgmax                  : 5 *! Number of NGWF iterations to reset CG (Intege 
precondscheme              : TETER *! Recip-space preconditioning scheme (Strin 
kzero                      : 3.00000000000000 *! KE preconditioning parameter ( 
rprecond                   : 2.00000000000000 *! Radial cut-off for real-space  
precondrecip               : T *! Recip-space KE preconditioning (Boolean)      
precondreal                : F *! Real-space KE preconditioning (Boolean)       
smoothscheme               : NONE *! Smoothing scheme for the NGWF gradients at 
rsmooth                    : 1.50000000000000      bohr *! Radius of the unshav 
ksmooth                    : 5.00000000000000 *! Characteristic wavelength of t 
occmix                     : 0.250000000000000 *! Mix fraction of occupancy pre 
kernelupdate               : F *! Update density kernel during NGWF line search 
kernelchristoffelupdate    : F *! Update density kernel during NGWF line search 
maxithotelling             : 50 *! Number of Hotelling iteration per NGWF chang 
maxresidhotelling          : 1.000000000000000E-012 *! Max allowed value in Hot 
maxitngwfdiis              : 0 *! Max number of NGWF DIIS steps (Integer)       
ngwfdiissize               : 4 *! Max size of the DIIS iterative subspace (Inte 
ngwfdiisreset              : 8 *! Max number of iteration for the resetting of  
ngwfdiismaxstep            : 2.00000000000000 *! Max length of trial step for N 
ngwfthresholdorig          : 1.000000000000000E-005 *! NGWF convergence thresho 
elecenergytol              : -1.000000000000000E-003 hartree *! Tolerance on to 
elecforcetol               : -1.000000000000000E-003 ha/bohr *! Tolerance on ma 
ngwfmaxgrad                : -2.000000000000000E-005 *! Maximum permissible val 
deltaeconv                 : T *! Use consecutive energy gains as a criterion f 
locpotintbatchsize         : 10 *! Size of NGWF in fftbox batch for locpot inte 
kineticintbatchsize        : 10 *! Size of NGWF in fftbox batch for kinetic int 
densitybatchsize           : 10 *! Size of NGWF in fftbox batch for charge dens 
ngwfgradbatchsize          : 10 *! Size of NGWF in fftbox batch for NGWF gradie 
densethreshold             : 0.400000000000000 *! Threshold for matrix segment  
commsgroupsize             : 4 *! Number of nodes in a group (determines comms  
ovlpfornonlocal            : F *! Overlap sparsity for nonlocal (Boolean)       
usespacefillingcurve       : T *! Re-arrange atoms according to space-filling c 
corehamdenskernguess       : T *! Initial guess for density kernel from core Ha 
checkatoms                 : T *! Check atoms on top of each other (Boolean)    
locpotscheme               : FULL *! Scheme for evaluating local potential matr 
smoothprojectors           : -0.400000000000000 *! Halfwidth of Gaussian filter 
smoothlocpspot             : -0.400000000000000 *! Halfwidth of Gaussian filter 
oddpsincgrid               : F *! Force odd number of points in simcell psinc g 
evenpsincgrid              : F *! Force even number of points in simcell psinc  
realspaceprojectors        : F *! Whether to evaluate and store projectors in r 
outputdetail               : VERBOSE *! Level of output detail (String)         
pawoutputdetail            : DEFAULT *! Level of output detail for PAW: BRIEF,  
timingslevel               : 1 *! Level of timings output: 0(none) 1(nodes summ 
writeparams                : T *! Output runtime parameters at startup (Boolean 
writeforces                : F *! Write ionic forces (Boolean)                  
writepositions             : T *! Write ionic positions each geometry or MD ste 
writexyz                   : F *! Output coordinates in .xyz file (Boolean)     
printqc                    : T *! Print Quality Control information (Boolean)   
cubeformat                 : T *! Allow .cube format for plot outputs (Boolean) 
dxformat                   : F *! Allow .dx format for plot outputs (Boolean)   
dxformatcoarse             : F *! Output only points on the coarse grid (Boolea 
dxformatdigits             : 7 *! Number of significant digits in .dx output (I 
grdformat                  : F *! Allow .grd format for plot outputs (Boolean)  
writedensityplot           : F *! Write the charge density in plotting format ( 
writengwfplot              : F *! Write NGWFs in plotting format (Boolean)      
writengwfgradplot          : F *! Write NGWF Gradients in plotting format (Bool 
writengwfradial            : 0 *! Write NGWFs radial distributions (Integer)    
writengwfgradradial        : 0 *! Write NGWFs gradients radial distributions (I 
writeradialstep            : 5.000000000000000E-003 bohr *! Define the grid ste 
writeradialsmear           : 1.000000000000000E-002 bohr *! Define the gaussian 
readdenskern               : F *! Read density kernel restart information (Bool 
writedenskern              : T *! Write density kernel restart information (Boo 
readtightboxngwfs          : F *! Read in universal tightbox NGWFs restart info 
writetightboxngwfs         : T *! Write in universal tightbox NGWFs restart inf 
writeconvergeddkngwfs      : F *! Only write Density Kernel and NGWFs upon conv 
readswngwfs                : F *! Read NGWFs restart information in spherical w 
writeswngwfs               : F *! Write NGWFs restart information in spherical  
writemaxl                  : 3 *! Maximum angular momentum number when writing  
readmaxl                   : 3 *! Maximum angular momentum number when reading  
extransw                   : 0 *! Maximum number of zeros of the sph Bessel fun 
paw                        : F *! Uses a PAW construction to find correct core  
finegridscale              : 2.00000000000000 *! Ratio of size of fine grid to  
dblgridscale               : 2.00000000000000 *! Ratio of charge density / pote 
augfuncsrecip              : T *! Construct Augmentation functions in recip spa 
dispersion                 : 0 *! Select dispersion correction (Integer)        
vdwdcoeff                  : -1.00000000000000 *! Replacement VDW damping coeff 
hubbardmaxiter             : 0 *! Maximum number of DFT+U projector optimisatio 
hubbardenergytol           : 1.000000000000000E-008 hartree *! Energy tolerance 
hubbardconvwin             : 2 *! Energy convergence window when using DFT+U pr 
hubbardprojmixing          : 0.000000000000000E+000 *! Proportion of old Hubbar 
hubbardfunctional          : 1 *! DFT+U energy functional to use (Integer)      
hubbardtensorcorr          : 1 *! DFT+U projector tensorial correction to use ( 
hubbardngwfspinthreshold   : 2.000000000000000E-005 *! NGWF RMS  gradient thres 
coulombcutoffradius        : 0.000000000000000E+000 bohr *! Radius of sphere or 
coulombcutofflength        : 0.000000000000000E+000 bohr *! Length of cylinder  
coulombcutofftype          : NONE *! Type of cutoff coulomb interaction: NONE,  
coulombcutoffwriteint      : F *! Write real-space cutoff Coulomb interaction s 
pbccorrectioncutoff        : 0.000000000000000E+000 *! alpha*L cutoff parameter 
doproperties               : T *! Allow calculation of properties (Boolean)     
numeigenvalues             : 20 *! Number of energy and occupancy eigenvalues t 
homodensplot               : -1 *! Number of squared MOs to plot from HOMO and  
lumodensplot               : -1 *! Number of squared MOs to plot from LUMO and  
homoplot                   : -1 *! Number of MOs to plot from HOMO and lower (I 
lumoplot                   : -1 *! Number of MOs to plot from LUMO and higher ( 
dossmear                   : -3.674899422453221E-002 hartree *! Half width of s 
ldossmear                  : 3.674932438755288E-003 hartree *! Lorentzian broad 
popncalculate              : F *! Allow population analysis (Boolean)           
popnbondcutoff             : 5.66917840375065      bohr *! Bond length cutoff f 
ngwfanalysis               : F *! Perform NGWF analysis (Boolean)               
polarisationcalculate      : F *! Allow calculation of polarisation (Boolean)   
spreadcalculate            : F *! Calculate spread of NGWFs (Boolean)           
geommodulusest             : 1.700000000000000E-002 ha/bohr**3 *! The estimated 
geomfrequencyest           : 7.600000000000000E-003 hartree *! The estimated av 
geomenergytol              : 1.000000000000000E-006 hartree *! Geometry optimiz 
geomforcetol               : 2.000000000000000E-003 ha/bohr *! Geometry optimiz 
geomdisptol                : 5.000000000000000E-003 bohr *! Geometry optimizati 
geommaxiter                : 50 *! Maximum number of geometry optimization iter 
geomconvergencewin         : 2 *! Geometry optimization convergence tolerance w 
geomcontinuation           : F *! Read information for continuation of a previo 
geombackupiter             : 1 *! Number of geometry optimisation iterations be 
geomresetdkngwfsiter       : 6 *! Number of geom iterations between resets of k 
geomreusedkngwfs           : T *! Re-use density kernel and NGWFs during geomet 
geomprintinvhessian        : F *! Write inverse Hessian to standard output (Boo 
geommethod                 : CARTESIAN *! Method for geometry optimization (Str 
tssearchmethod             : LSTQST *! Specifies method to be used for TS searc 
tssearchlstqstprotocol     : LSTMAXIMUM *! Specifies LSTQST protocol (String)   
tssearchqstmaxiter         : 5 *! Specifies maximum number of QST steps (Intege 
tssearchcgmaxiter          : 20 *! Specifies maximum number of CG steps (Intege 
tssearchforcetol           : 5.000000000000000E-003 ha/bohr *! Force tolerance  
tssearchdisptol            : 1.000000000000000E-002 bohr *! Displacement tolera 
mdproperties               : F *! Compute vibrational and IR spectra from MD (B 
mdrestart                  : F *! Restart MD from backup files (Boolean)        
mddeltat                   : 40.0000000000000      aut *! Molecular dynamics ti 
mdnumiter                  : 100 *! Maximum number of molecular dynamics iterat 
mdresetdenskernngwfs       : 5 *! Reset mixing scheme for initial guess of NGWF 
mtsxi                      : F *! Internal thermostat in the multiple time-step 
mtsnstep                   : 1 *! Number of time steps in the multiple time-ste 
mtsngwfthreshold           : 5.000000000000000E-004 *! NGWF convergence thresho 
mtsngwfthreshold           : 5.000000000000000E-006 *! NGWF convergence thresho 
mixdenskernnum             : 0 *! Number of coefficients used to build new gues 
mixngwfsnum                : 0 *! Number of coefficients used to build new gues 
mixdenskerntype            : 0 *! Type of mixing used to build new guess for dk 
mixngwfscoeff              : 1.00000000000000 *! Coefficient for mixing extrapo 
mixngwfstype               : 0 *! Type of mixing used to build new guess for NG 
mixlocallength             : 0.000000000000000E+000 bohr *! Max radius for loca 
mixlocalsmear              : 0.000000000000000E+000 bohr *! Radial smearing for 
condreaddenskern           : F *! Read in conduction density kernel (Boolean)   
condreadtightboxngwfs      : F *! Read in universal tightbox conduction NGWFs ( 
condfixedshift             : F *! Fixed projected conduction Hamiltonian shift  
condcalcmaxeigen           : T *! Calculate maximum conduction Hamiltonian eige 
condnumstates              : 20 *! Number of conduction states to be optimised  
condkernelcutoff           : 1000.00000000000 *! Conduction density kernel radi 
condinitshift              : 1.00000000000000 *! Initial shifting factor for pr 
condshiftbuffer            : 0.100000000000000 *! Additional buffer for updatin 
condnumextrastates         : 0 *! Number of extra conduction states for initial 
condnumextraits            : 0 *! Number of NGWF iterations with extra conducti 
condplotjointorbitals      : T *! Plot orbitals in the joint basis following a  
condplotvcorbitals         : T *! Plot orbitals in the val and cond NGWF basis  
condcalcopticalspectra     : F *! Calculate matrix elements for optical absorpt 
condspeccalcmommatels      : T *! Calculate momentum matrix elements (default t 
condspeccalcnonloccomm     : T *! Calculate nonlocal commutator for momentum ma 
condspeccontderiv          : T *! Calculate non-local commuator using continuou 
condspecnonloccommshift    : 1.000000000000000E-004 *! Finite difference shift  
bskpointpathspacing        : 1.500000000000000E-002 1/bohr *! K-point spacing a 
bsnumeigenvalues           : 20 *! Num of energy and occ. eigenvalues to print  
bsunfold                   : 1 1 20 *! Number of times to unfold Brillouin zone 
bsmethod                   : TB *! Method to use: 'KP' or 'TB' (String)         
dotddft                    : F *! Allow Time-Dependent DFT calculation (Boolean 
tddftmaximumenergy         : 1.00000000000000      hartree *! Desired maximum o 
tddftresolution            : 1.000000000000000E-003 hartree *! Desired resoluti 
tddftpropagationmethod     : CRANKNICHOLSON *! Method used to integrate von Neu 
tddftsparsitylevel         : 0 *! Matrix sparsity when computing propagators e. 
tddfttammdancoff           : F *! Invoke Tamm-Dancoff decoupling approximation  
tddftdipolekickstrength    : 0.0 0.0 0.0 *! Maximum allowed phase shift in TDDF 
tddftxcfunctional          : LDA *! Exchange-correlation functional for TDDFT ( 
tddfthamiltonianmixing     : 0 *! Order of polynomial extrapolation to H(t + ha 
tddftdamping               : 0.000000000000000E+000 hartree *! Energy smearing  
tddftenforcedidempotency   : F *! Project out at each timestep that part of cha 
tddftmaxithotelling        : 50 *! Number of Hotelling iteration per propagatio 
tddftmaxresidhotelling     : 1.000000000000000E-018 *! Max allowed value in Hot 
tddftinvoverlapexact       : T *! Renew inverse overlap with O N^3 algorithm be 
isimplicitsolvent          : F *! Use implicit solvent? (Boolean)               
issmearedionrep            : F *! Implicit solvent: use smeared ions for electr 
isincludecavitation        : F *! Implicit solvent: include cavitation energy ( 
isdensitythreshold         : 7.800000000000000E-004 *! Implicit solvent: rho_0  
issolvationbeta            : 1.30000000000000 *! Implicit solvent: beta paramet 
isbulkpermittivity         : 1.00000000000000 *! Implicit solvent: eps_inf para 
ismultigriddefecterrortol  : 1.000000000000000E-002 *! Implicit solvent: stop c 
ismultigriderrortol        : 1.000000000000000E-005 *! Implicit solvent: stop c 
issmearedionwidth          : 0.800000000000000 *! Implicit solvent: Width of Ga 
issurfacethickness         : 2.000000000000000E-004 *! Implicit solvent: thickn 
issolventsurfacetension    : 4.762400000000000E-005 ha/bohr**2 *! Implicit solv 
ismultigridmaxiters        : 100 *! Implicit solvent: max number of iterations  
ismultigridnlevels         : 4 *! Implicit solvent: number of levels in multigr 
isdiscretizationorder      : 8 *! Implicit solvent: discretization order (2nd,  
isbccoarseness             : 5 *! Open BCs: controls boundary condition coarse- 
isbcsurfacecoarseness      : 1 *! Open BCs: controls boundary condition coarse- 
isbcthreshold              : 1.000000000000000E-009 *! Open BCs: controls bound 
ischecksolvenergygrad      : F *! Implicit solvent: sanity check the energy gra 
issolvationmethod          : DIRECT *! Implicit solvent: direct or corrective m 
isdielectricmodel          : FIX_INITIAL *! Implicit solvent: how the cavity is 
isdielectricfunction       : FGF *! Implicit solvent: how the cavity is determi 
issolvationoutputdetail    : NONE *! Implicit solvent: controls extra output (S 
openbcionion               : F *! Force open BCs in ion-ion energy (Boolean)    
openbchartree              : F *! Force open BCs in Hartree potential (Boolean) 
openbcpspot                : F *! Force open BCs in local pseudopotential (Bool 
openbcpspotfinetunenptsx   : 100000 *! Open BCs in local pseudo, npts_x paramet 
openbcpspotfinetunealpha   : 0.300000000000000 *! Open BCs in local pseudo, alp 
openbcpspotfinetunef       : -1 *! Open BCs in local pseudo, fineness parameter 
hfxintegration             : 2 *! Variant of the numerical pointwise approach i 
nlppforexchange            : F *! Give exchange matrix same sparsity as non-loc 
radialsegments             : 50 *! Number of radial segments in vmatrix evaluat 
angularsegments            : 50 *! Number of angular segments in vmatrix evalua 
%block bskpointpath        : *! K-point path for bandstructure calculation (Blo 
0.0 0.0 -0.5                                                                    
0.0 0.0  0.5                                                                    
%endblock bskpointpath     : *! K-point path for bandstructure calculation (Blo 
writenbo                   : F *! Performs Natural Population Analysis and writ 
nboinitlclowdin            : F *! Performs atom-centered Lowdin symmetric ortho 
nbowritelclowdin           : F *! Write a GENNBO FILE.47 containing all the ato 
nbowritenpacomp            : F *! Writes individual NAO population into the sta 
nboscaledm                 : T *! Scales density matrix in the FILE.47 output t 
%block positionsabs        : *! Cartesian positions for each atom (Block)       
H 0.0 0.0  0.0                                                                  
H 0.0 0.0  2.0                                                                  
H 0.0 0.0  4.0                                                                  
H 0.0 0.0  6.0                                                                  
H 0.0 0.0  8.0                                                                  
H 0.0 0.0 10.0                                                                  
H 0.0 0.0 12.0                                                                  
H 0.0 0.0 14.0                                                                  
H 0.0 0.0 16.0                                                                  
H 0.0 0.0 18.0                                                                  
H 0.0 0.0 20.0                                                                  
H 0.0 0.0 22.0                                                                  
H 0.0 0.0 24.0                                                                  
H 0.0 0.0 26.0                                                                  
H 0.0 0.0 28.0                                                                  
H 0.0 0.0 30.0                                                                  
H 0.0 0.0 32.0                                                                  
H 0.0 0.0 34.0                                                                  
H 0.0 0.0 36.0                                                                  
H 0.0 0.0 38.0                                                                  
%endblock positionsabs     : *! Cartesian positions for each atom (Block)       
%block latticecart         : *! The simulation cell lattice vectors (Block)     
40.0  0.0  0.0                                                                  
0.0 40.0  0.0                                                                   
0.0  0.0 40.0                                                                   
%endblock latticecart      : *! The simulation cell lattice vectors (Block)     
%block species             : *! Species information (symbol, atomic number, num 
H H 1 1 5.9                                                                     
%endblock species          : *! Species information (symbol, atomic number, num 
%block speciespot          : *! Pseudopotential name for each species (Block)   
H     "../../pseudo/hydrogen_coul.recpot"                                       
%endblock speciespot       : *! Pseudopotential name for each species (Block)   
%block speciescond         : *! Species information for Conduction NGWFs (symbo 
H H 1 4 5.9                                                                     
%endblock speciescond      : *! Species information for Conduction NGWFs (symbo 
%block speciesatomicset    : *! Atomic set name for each species (Block)        
H "SOLVE conf=1s1 2sX"                                                          
%endblock speciesatomicset : *! Atomic set name for each species (Block)        
-------------------------------------------------------------------------------
-------------------------------------------------------------------------------

<<<<<<<<<<<<<<<<<<<<<<<<< Pseudopotential information >>>>>>>>>>>>>>>>>>>>>>>>>
File: ../../pseudo/hydrogen_coul.recpot [ 2001 points up to Gmax=  52.9 (1/bohr)]
  Atomic number:  1;  ionic charge:  1.000000
    Local potential
<<<<<<<<<<<<<<<<<<<<<<<<<<<<<<<<<<<<<<< >>>>>>>>>>>>>>>>>>>>>>>>>>>>>>>>>>>>>>>

------------------------- Atom counting information ---------------------------
Symbol    Natoms    Nngwfs    Nprojs
  H         20        20         0
.......   ......    ......    ......
Totals:     20        20         0
-------------------------------------------------------------------------------
 
Determining parallel strategy ...
... using space-filling curve
... NGWF load balancing: max      5;  min      5;  average      5
... Conduction NGWF load balancing: max     20;  min     20;  average     20
... Joint NGWF load balancing: max     25;  min     25;  average     25
... done

Calculating Ewald energy ...
              Ewald: real-space energy =      16.019587
        Ewald: reciprocal-space energy =       2.338882
         Ewald: (sum_charge)**2 Energy =       1.842016
         Ewald: (sum_charge**2) Energy =       0.823774
                          Ewald Energy =      15.692678
... FFT-box specified

Basis initialisation ...
... Atom positions lie inside simulation cell
... NGWF spheres initialised
... Conduction NGWF spheres initialised
... NGWF tight boxes initialised
... Conduction NGWF tight boxes initialised
... Joint NGWF tight boxes initialised
... NGWF basis size (local,global):       6764     27056
... Conduction NGWF basis size (local,global):      26324    105296
... Joint NGWF basis size (local,global):      32844    131376
... Tight-boxes gathered
... done

============================== PSINC grid sizes ================================
                      Simulation cell:   80 x  80 x  80
                              FFT-box:   75 x  75 x  75
                                  PPD:    5 x   5 x   5
Grid space d1=  0.500000000000a0 (KE cutoff=  30.38533Eh = 826.82697eV)
Grid space d2=  0.500000000000a0 (KE cutoff=  30.38533Eh = 826.82697eV)
Grid space d3=  0.500000000000a0 (KE cutoff=  30.38533Eh = 826.82697eV)
================================================================================

********************** Fourier parallelisation information *********************
       Coarse grid (whole simulation cell) dimensions:     80    80    80

                 Real-space grid ('12' slabs):
                   Node    0:   20 (from    1 to   20)
                   Node    1:   20 (from   21 to   40)
                   Node    2:   20 (from   41 to   60)
                   Node    3:   20 (from   61 to   80)

                 Reciprocal-space grid ('23' slabs):
                   Node    0:   10 (from    1 to   10)
                   Node    1:   10 (from   11 to   20)
                   Node    2:   11 (from   21 to   31)
                   Node    3:   10 (from   32 to   41)
********************************************************************************

********************** Fourier parallelisation information *********************
       Double grid (whole simulation cell) dimensions:    160   160   160

                 Real-space grid ('12' slabs):
                   Node    0:   40 (from    1 to   40)
                   Node    1:   40 (from   41 to   80)
                   Node    2:   40 (from   81 to  120)
                   Node    3:   40 (from  121 to  160)

                 Reciprocal-space grid ('23' slabs):
                   Node    0:   20 (from    1 to   20)
                   Node    1:   20 (from   21 to   40)
                   Node    2:   21 (from   41 to   61)
                   Node    3:   20 (from   62 to   81)
********************************************************************************

=========================== Sparse matrix information ==========================
                        Overlap matrix filling:  55.00%
                        Density kernel filling: 100.00%
                    Hamiltonian matrix filling:  55.00%
                  NGWF diagonal matrix filling:   5.00%
                             KS matrix filling: 100.00% 
                           KSKS matrix filling: 100.00% 
================================================================================

Sparse matrix initialisation ... done
  
Reading NGWFs from file "hchain_cond.tightbox_ngwfs" ...  done
============ Calculation of NGWF S^-1 using Hotelling algorithm ================ 
         Iteration  |  Frobenius norm and Maximum abs value    (of I-S*S_n^-1)   
               1       0.36434372E+01     0.74219800E+00
               2       0.34288391E+01     0.66373173E+00
               3       0.32119891E+01     0.58784687E+00
               4       0.29911378E+01     0.51584371E+00
               5       0.27626347E+01     0.44734527E+00
               6       0.25218100E+01     0.38160752E+00
               7       0.22629599E+01     0.31797629E+00
               8       0.19787598E+01     0.25604938E+00
               9       0.16585314E+01     0.19577453E+00
              10       0.12920792E+01     0.13753632E+00
              11       0.88095883E+00     0.83473434E-01
              12       0.46377878E+00     0.38804423E-01
              13       0.15036550E+00     0.10754538E-01
              14       0.19966190E-01     0.11304892E-02
              15       0.39491028E-03     0.19932438E-04
              16       0.15594711E-06     0.77977087E-08
              17       0.25093557E-13     0.26645353E-14
================================================================================

Reading density kernel from file "hchain_cond.dkn" ... done

===================== Conduction Sparse matrix information =====================
                        Overlap matrix filling:  55.00%
                        Density kernel filling: 100.00%
                    Hamiltonian matrix filling:  55.00%
              NGWF-COND overlap matrix filling:  55.00%
        Proj. Cond. Hamiltonian matrix filling: 100.00% 
                  NGWF diagonal matrix filling:   5.00%
                             KS matrix filling: 100.00% 
                           KSKS matrix filling: 100.00% 
================================================================================

Conduction sparse matrix initialisation ... done
Conduction NGWF initialisation ...
Atom SCF Calculation for H  : Z (AE atom) =   1 : Z (PS atom) =   1
Orbitals (num,occ,l):  2     1.00 0.00      0  1
Real-space Grid (nr,dr,rmax):  731    0.0080821918    5.9000000000
Spherical Bessel Basis (nsws,lmax,cutoff):   29    1  120.0000000000
Confining potential (l,width,scale):  0    3.0000000000  100.0000000000
Confining potential (l,width,scale):  1    3.0000000000  100.0000000000
  1  807.3729925073   -0.2126201733    0.2820956132   -0.2319351181
  2  322.6912541996   -0.1965472763    0.3034710697   -0.2471310694
  3  167.5931200690   -0.1909825561    0.3106984970   -0.2525614063
  4   86.9431402311   -0.1882822712    0.3142393638   -0.2552631272
  5   45.0057821685   -0.1870231980    0.3159027951   -0.2565476300
  6   23.1986809018   -0.1864491582    0.3166656969   -0.2571438337
  7   11.8591466951   -0.1861917733    0.3170097103   -0.2574162973
  8    5.9626643687   -0.1860781849    0.3171625219   -0.2575392761
  9    2.8965290393   -0.1860289344    0.3172293151   -0.2575941010
 10    1.3021552597   -0.1860080676    0.3172579368   -0.2576182160
 11    0.4730885971   -0.1859994962    0.3172698829   -0.2576286427
 12    0.0419774983   -0.1859961359    0.3172746828   -0.2576330505
 13   -0.1821986287   -0.1859949171    0.3172764992   -0.2576348555
 14   -0.2987694595   -0.1859945383    0.3172771161   -0.2576355600
 15   -0.3593859462   -0.1859944648    0.3172772786   -0.2576358136
 16   -0.3909063622   -0.1859944865    0.3172772864   -0.2576358910
 17   -0.4072969075   -0.1859945269    0.3172772532   -0.2576359050
 18   -0.4158199593   -0.1859945621    0.3172772178   -0.2576358994
 19   -0.4202519321   -0.1859945874    0.3172771905   -0.2576358903
 20   -0.4225565517   -0.1859946039    0.3172771719   -0.2576358825
 21   -0.4237549513   -0.1859946142    0.3172771601   -0.2576358770
 22   -0.4243781179   -0.1859946204    0.3172771529   -0.2576358734
 23   -0.4247021641   -0.1859946241    0.3172771486   -0.2576358711
 24   -0.4248706680   -0.1859946262    0.3172771462   -0.2576358698
 25   -0.4249582899   -0.1859946274    0.3172771447   -0.2576358690
 26   -0.4250038533   -0.1859946281    0.3172771439   -0.2576358685
 27   -0.4250275463   -0.1859946284    0.3172771435   -0.2576358683
 28   -0.4250398666   -0.1859946286    0.3172771432   -0.2576358681
 29   -0.4250462732   -0.1859946288    0.3172771431   -0.2576358680
 30   -0.4250496046   -0.1859946288    0.3172771430   -0.2576358680
 31   -0.4250513369   -0.1859946289    0.3172771430   -0.2576358680
 32   -0.4250522378   -0.1859946289    0.3172771429   -0.2576358680
 33   -0.4250527062   -0.1859946289    0.3172771429   -0.2576358679
 34   -0.4250529498   -0.1859946289    0.3172771429   -0.2576358679
 35   -0.4250530764   -0.1859946289    0.3172771429   -0.2576358679
 36   -0.4250531423   -0.1859946289    0.3172771429   -0.2576358679
Atom SCF converged after  36 iterations to a total energy of     -0.42505314
... done

 done
+------------------------------------------------------------------------------+
|                   Starting conduction NGWF optimisation                      |
+------------------------------------------------------------------------------+
============ Calculation of NGWF S^-1 using Hotelling algorithm ================ 
         Iteration  |  Frobenius norm and Maximum abs value    (of I-S*S_n^-1)   
               1       0.80068609E+01     0.89597778E+00
               2       0.75486413E+01     0.82022842E+00
               3       0.71330843E+01     0.72112340E+00
               4       0.68112973E+01     0.65090003E+00
               5       0.65408735E+01     0.63047944E+00
               6       0.62942188E+01     0.61893035E+00
               7       0.60608107E+01     0.60745389E+00
               8       0.58324583E+01     0.59447149E+00
               9       0.55973093E+01     0.57805730E+00
              10       0.53453304E+01     0.55474087E+00
              11       0.50484669E+01     0.51975610E+00
              12       0.46792347E+01     0.46428915E+00
              13       0.41938570E+01     0.38175888E+00
              14       0.36179685E+01     0.30949913E+00
              15       0.30369839E+01     0.25888467E+00
              16       0.25085029E+01     0.20850973E+00
              17       0.20616563E+01     0.16756909E+00
              18       0.17129986E+01     0.13641849E+00
              19       0.14203857E+01     0.11178260E+00
              20       0.11754581E+01     0.89265185E-01
              21       0.10215597E+01     0.66627938E-01
              22       0.96997074E+00     0.51799843E-01
              23       0.93803191E+00     0.47028031E-01
              24       0.87989990E+00     0.43995173E-01
              25       0.77422384E+00     0.38711192E-01
              26       0.59942255E+00     0.29971127E-01
              27       0.35930739E+00     0.17965370E-01
              28       0.12910180E+00     0.64550901E-02
              29       0.16667275E-01     0.83336376E-03
              30       0.27779806E-03     0.13889903E-04
              31       0.77171749E-07     0.38586396E-08
              32       0.53056839E-12     0.63948846E-13
================================================================================
Generating conduction density kernel for     0 'occupied' orbitals
Up spin density kernel initialisation ... 
Conduction Hamiltonian max eigenvalue:    5.20340318091613    1.00000000000000
Conduction shift updated:        5.30340318091613
Conduction Hamiltonian max eigenvalue:    0.00000000000000    5.30340318091613
... done
Generating conduction density kernel for    20 'occupied' orbitals
Down spin density kernel initialisation ... 
... done

Writing density kernel to file "hchain_cond.dkn_cond" ... done

################################################################################
######################### COND NGWF CG iteration  001 ##########################
################################################################################
****** Reciprocal space K.E. preconditioning with k_zero =  3.0000 a0^-1 *******
Conduction Hamiltonian max eigenvalue:    5.20340317944194    1.00000000000000
Conduction shift updated:        5.30340317944194
Conduction Hamiltonian max eigenvalue:    5.43098017763924    5.30340317944194
Conduction shift updated:        5.53098017763924
   Initial electron number for spin 1:       0.00000000
   Initial electron number for spin 2:      20.00000000
     Final electron number for spin 1:       0.00000000
     Final electron number for spin 2:      20.00000000

=================== Penalty functional idempotency correction ==================
 RMS occupancy error at iteration   1:  0.000000 (step -0.5000 Ne1=      0.0000)
                                                               Ne2=     20.0000
            Final RMS occupancy error   :  0.000000 (Ne1=      0.0000)
                                                     Ne2=     20.0000
            Final occupancy bounds spin 1: [  0.000,  0.000]
            Final occupancy bounds spin 2: [  0.000,  1.000]
================================================================================

................................................................................
<<<<<<<<<<<<<< LNV (Original version) density kernel optimisation >>>>>>>>>>>>>>
~~~~~~~~~~~~~~~~~~~~~~~~~~~~~~~~~~~~~~~~~~~~~~~~~~~~~~~~~~~~~~~~~~~~~~~~~~~~~~~~
iter|       energy      |  rms DeltaK |  commutator |LScoef|CGcoef|      Ne    |
      ideal mu1:       0.000000000000
      ideal mu2:       0.067454947273
 1      1.34909894546970 0.00000000000 0.00000000000

                 ..............................................
                 | RMS LNV GRADIENT=    0.00000000000000      |
                 | LNV density kernel optimisation converged! |
                 ~~~~~~~~~~~~~~~~~~~~~~~~~~~~~~~~~~~~~~~~~~~~~~

Writing density kernel to file "hchain_cond.dkn_cond" ... done

           ........................................................
           | *** NGWF optimisation not converged ***              |
           | RMS NGWF gradient =    0.00070500020247              |
           | Criteria not satisfied:                              |
           | -> RMS NGWF gradient higher than set threshold.      |
           ========================================================

------------------------------- NGWF line search -------------------------------
============ Calculation of NGWF S^-1 using Hotelling algorithm ================ 
         Iteration  |  Frobenius norm and Maximum abs value    (of I-S*S_n^-1)   
               1       0.77790978E-01     0.38726470E-02
               2       0.18902664E-02     0.11791739E-03
               3       0.33600818E-05     0.17022606E-06
               4       0.11323213E-10     0.62527761E-12
================================================================================
Conduction Hamiltonian max eigenvalue:    5.17942025229344    5.53098017763924
Conduction Hamiltonian max eigenvalue:    5.40902839739704    5.53098017763924
============ Calculation of NGWF S^-1 using Hotelling algorithm ================ 
         Iteration  |  Frobenius norm and Maximum abs value    (of I-S*S_n^-1)   
               1       0.22062100E+01     0.16991852E+00
               2       0.67989671E+00     0.69280107E-01
               3       0.23225946E+00     0.16056474E-01
               4       0.48929611E-01     0.25471781E-02
               5       0.23903589E-02     0.11959208E-03
               6       0.57138124E-05     0.28569130E-06
               7       0.32679939E-10     0.18758328E-11
               8       0.19493320E-11     0.32446008E-12
================================================================================
Conduction Hamiltonian max eigenvalue:    5.65367811996887    5.53098017763924
Conduction shift updated:        5.75367811996887
Conduction Hamiltonian max eigenvalue:    5.93636793396012    5.75367811996887
Conduction shift updated:        6.03636793396011
============ Calculation of NGWF S^-1 using Hotelling algorithm ================ 
         Iteration  |  Frobenius norm and Maximum abs value    (of I-S*S_n^-1)   
               1       0.12540536E+00     0.90914036E-02
               2       0.33369918E-02     0.28069262E-03
               3       0.98392124E-05     0.51886519E-06
               4       0.96657782E-10     0.51043909E-11
               5       0.19284856E-11     0.23252147E-12
================================================================================
RMS gradient                =       0.00070500020247
Trial step length           =               0.122474
Gradient along search dir.  =         -0.27365466681
Functional at step 0        =       1.34909894546970
Functional at step 1        =       1.31628076832530
Rejected quadratic step     =               2.942364
Functional at new step 1    =       0.96564627788017
Functional predicted        =       0.96477735427287
Selected quadratic step     =               2.808807
Conjugate gradients coeff.  =               0.000000
--------------------------- NGWF line search finished --------------------------
                                               
Writing Conduction NGWFs to file "hchain_cond.tightbox_ngwfs_cond"....  done

################################################################################
######################### COND NGWF CG iteration  002 ##########################
################################################################################
****** Reciprocal space K.E. preconditioning with k_zero =  3.0000 a0^-1 *******
Conduction Hamiltonian max eigenvalue:    5.51267091433873    6.03636793396011
Conduction Hamiltonian max eigenvalue:    5.79435737018832    6.03636793396011
   Initial electron number for spin 1:       0.00000000
   Initial electron number for spin 2:      19.26538662
     Final electron number for spin 1:       0.00000000
     Final electron number for spin 2:      20.00000000

=================== Penalty functional idempotency correction ==================
 RMS occupancy error at iteration   1:  0.018629 (step -0.5688 Ne1=      0.0000)
                                                               Ne2=     20.0000
 RMS occupancy error at iteration   2:  0.001633 (step -0.5083 Ne1=      0.0000)
                                                               Ne2=     20.0000
 RMS occupancy error at iteration   3:  0.000011 (step -0.5000 Ne1=      0.0000)
                                                               Ne2=     20.0000
            Final RMS occupancy error   :  0.000000 (Ne1=      0.0000)
                                                     Ne2=     20.0000
            Final occupancy bounds spin 1: [  0.000,  0.000]
            Final occupancy bounds spin 2: [  0.000,  1.000]
================================================================================

................................................................................
<<<<<<<<<<<<<< LNV (Original version) density kernel optimisation >>>>>>>>>>>>>>
~~~~~~~~~~~~~~~~~~~~~~~~~~~~~~~~~~~~~~~~~~~~~~~~~~~~~~~~~~~~~~~~~~~~~~~~~~~~~~~~
iter|       energy      |  rms DeltaK |  commutator |LScoef|CGcoef|      Ne    |
      ideal mu1:       0.000000000000
      ideal mu2:       0.047526606337
             Q0:       0.950532126750
             G0:      -0.009584892719
   RMS gradient:       0.001730687428
     Trial step:       0.500000000000
             Q1:       0.949009967412
 Quadratic coef:       0.003270287022
 Linear coef   :      -0.004792446359
           Qmin:       0.948776352566
Quadratic minimum step length (  0.366362824371) accepted
    Initial Ne1:       0.00000000
    Initial Ne2:      19.99999981
      Final Ne1:       0.00000000
      Final Ne2:      20.00000000

=================== Penalty functional idempotency correction ==================
 RMS occupancy error at iteration   1:  0.000050 (step -0.4997 Ne1=      0.0000)
                                                               Ne2=     20.0000
            Final RMS occupancy error   :  0.000000 (Ne1=      0.0000)
                                                     Ne2=     20.0000
            Final occupancy bounds spin 1: [  0.000,  0.000]
            Final occupancy bounds spin 2: [  0.000,  1.000]
================================================================================

 1      0.95053212674961 0.00000000000 0.00223078998 0.3664  0.000   20.00000000
      ideal mu1:       0.000000000000
      ideal mu2:       0.047438756397
             Q0:       0.948775127943
             G0:      -0.000170880425
   RMS gradient:       0.000230986122
     Trial step:       0.427996976841
             Q1:       0.948718771865
 Quadratic coef:       0.000016780227
 Linear coef   :      -0.000073136305
           Qmin:       0.948695437140
Quadratic minimum step length (  0.932708389551) accepted
    Initial Ne1:       0.00000000
    Initial Ne2:      20.00000051
      Final Ne1:       0.00000000
      Final Ne2:      20.00000000

=================== Penalty functional idempotency correction ==================
 RMS occupancy error at iteration   1:  0.000009 (step -0.5000 Ne1=      0.0000)
                                                               Ne2=     20.0000
            Final RMS occupancy error   :  0.000000 (Ne1=      0.0000)
                                                     Ne2=     20.0000
            Final occupancy bounds spin 1: [  0.000,  0.000]
            Final occupancy bounds spin 2: [  0.000,  1.000]
================================================================================

 2      0.94877512794295 0.00202924111 0.00117258687 0.9327  0.018   20.00000000
      ideal mu1:       0.000000000000
      ideal mu2:       0.047434771461
             Q0:       0.948695429214
             G0:      -0.000212650374
   RMS gradient:       0.000257770037
     Trial step:       0.631819888103
             Q1:       0.948598376137
 Quadratic coef:       0.000037303658
 Linear coef   :      -0.000134356735
           Qmin:       0.948574450915
Quadratic minimum step length (  1.137814128410) accepted
    Initial Ne1:       0.00000000
    Initial Ne2:      20.00000052
      Final Ne1:       0.00000000
      Final Ne2:      20.00000000

=================== Penalty functional idempotency correction ==================
 RMS occupancy error at iteration   1:  0.000062 (step -0.4995 Ne1=      0.0000)
                                                               Ne2=     20.0000
            Final RMS occupancy error   :  0.000000 (Ne1=      0.0000)
                                                     Ne2=     20.0000
            Final occupancy bounds spin 1: [  0.000,  0.000]
            Final occupancy bounds spin 2: [  0.000,  1.000]
================================================================================

 3      0.94869542921444 0.00040441831 0.00088453038 1.1378  1.245   20.00000000
      ideal mu1:       0.000000000000
      ideal mu2:       0.047428715792
 4      0.94857431583599 0.00035135767 0.00041403476 0.0000  0.000   20.00000000
Finished density kernel iterations (   4)

Writing density kernel to file "hchain_cond.dkn_cond" ... done

           ........................................................
           | *** NGWF optimisation not converged ***              |
           | RMS NGWF gradient =    0.00064120700394              |
           | Criteria not satisfied:                              |
           | -> RMS NGWF gradient higher than set threshold.      |
           ========================================================

------------------------------- NGWF line search -------------------------------
============ Calculation of NGWF S^-1 using Hotelling algorithm ================ 
         Iteration  |  Frobenius norm and Maximum abs value    (of I-S*S_n^-1)   
               1       0.96180351E+00     0.58823160E-01
               2       0.11759068E+00     0.76778618E-02
               3       0.12929068E-01     0.65790167E-03
               4       0.16712822E-03     0.83574891E-05
               5       0.27931850E-07     0.13968480E-08
               6       0.21168402E-11     0.25579538E-12
================================================================================
Conduction Hamiltonian max eigenvalue:    7.46566871369217    6.03636793396011
Conduction shift updated:        7.56566871369217
Conduction Hamiltonian max eigenvalue:    7.72079858113162    7.56566871369217
Conduction shift updated:        7.82079858113162
============ Calculation of NGWF S^-1 using Hotelling algorithm ================ 
         Iteration  |  Frobenius norm and Maximum abs value    (of I-S*S_n^-1)   
               1       0.42567437E+01     0.34219908E+00
               2       0.10471328E+01     0.11941567E+00
               3       0.44145478E+00     0.33595099E-01
               4       0.17325066E+00     0.91480176E-02
               5       0.29959511E-01     0.14994116E-02
               6       0.89757071E-03     0.44882007E-04
               7       0.80563233E-06     0.40284771E-07
               8       0.14867933E-11     0.18474111E-12
================================================================================
RMS gradient                =       0.00064120700394
Trial step length           =               0.586521
Gradient along search dir.  =         -0.22976206084
Functional at step 0        =       0.94857431583599
Functional at step 1        =       0.82790678860861
Functional predicted        =       0.62641806671663
Selected quadratic step     =               2.804260
Conjugate gradients coeff.  =               0.827214
--------------------------- NGWF line search finished --------------------------
                                               
Writing Conduction NGWFs to file "hchain_cond.tightbox_ngwfs_cond"....  done

################################################################################
######################### COND NGWF CG iteration  003 ##########################
################################################################################
****** Reciprocal space K.E. preconditioning with k_zero =  3.0000 a0^-1 *******
Conduction Hamiltonian max eigenvalue:   13.58418844027923    7.82079858113162
Conduction shift updated:       13.68418844027923
Conduction Hamiltonian max eigenvalue:   13.63262354448049   13.68418844027923
   Initial electron number for spin 1:       0.00000000
   Initial electron number for spin 2:      20.05950408
     Final electron number for spin 1:       0.00000000
     Final electron number for spin 2:      20.00000000

=================== Penalty functional idempotency correction ==================
 RMS occupancy error at iteration   1:  0.024764 (step -0.4211 Ne1=      0.0000)
                                                               Ne2=     20.0000
 RMS occupancy error at iteration   2:  0.003662 (step -0.5148 Ne1=      0.0000)
                                                               Ne2=     20.0000
 RMS occupancy error at iteration   3:  0.000041 (step -0.5002 Ne1=      0.0000)
                                                               Ne2=     20.0000
            Final RMS occupancy error   :  0.000000 (Ne1=      0.0000)
                                                     Ne2=     20.0000
            Final occupancy bounds spin 1: [  0.000,  0.000]
            Final occupancy bounds spin 2: [  0.000,  1.000]
================================================================================

................................................................................
<<<<<<<<<<<<<< LNV (Original version) density kernel optimisation >>>>>>>>>>>>>>
~~~~~~~~~~~~~~~~~~~~~~~~~~~~~~~~~~~~~~~~~~~~~~~~~~~~~~~~~~~~~~~~~~~~~~~~~~~~~~~~
iter|       energy      |  rms DeltaK |  commutator |LScoef|CGcoef|      Ne    |
      ideal mu1:       0.000000000000
      ideal mu2:       0.032221363473
             Q0:       0.644427269460
             G0:      -0.011287526599
   RMS gradient:       0.001878124613
     Trial step:       0.847875931545
             Q1:       0.645162548065
 Quadratic coef:       0.010305700735
 Linear coef   :      -0.009570422130
           Qmin:       0.642205368638
Quadratic minimum step length (  0.393691355286) accepted
    Initial Ne1:       0.00000000
    Initial Ne2:      19.99999558
      Final Ne1:       0.00000000
      Final Ne2:      20.00000000

=================== Penalty functional idempotency correction ==================
 RMS occupancy error at iteration   1:  0.000063 (step -0.4997 Ne1=      0.0000)
                                                               Ne2=     20.0000
            Final RMS occupancy error   :  0.000000 (Ne1=      0.0000)
                                                     Ne2=     20.0000
            Final occupancy bounds spin 1: [  0.000,  0.000]
            Final occupancy bounds spin 2: [  0.000,  1.000]
================================================================================

 1      0.64442726945990 0.00000000000 0.00231359197 0.3937  0.000   20.00000000
      ideal mu1:       0.000000000000
      ideal mu2:       0.032110114807
             Q0:       0.642202296140
             G0:      -0.000700651881
   RMS gradient:       0.000467558372
     Trial step:       0.577755505906
             Q1:       0.642739141699
 Quadratic coef:       0.000941651040
 Linear coef   :      -0.000404805482
           Qmin:       0.642158790778
Quadratic minimum step length (  0.124185386116) accepted
    Initial Ne1:       0.00000000
    Initial Ne2:      20.00000010
      Final Ne1:       0.00000000
      Final Ne2:      20.00000000

=================== Penalty functional idempotency correction ==================
 RMS occupancy error at iteration   1:  0.000003 (step -0.5000 Ne1=      0.0000)
                                                               Ne2=     20.0000
            Final RMS occupancy error   :  0.000000 (Ne1=      0.0000)
                                                     Ne2=     20.0000
            Final occupancy bounds spin 1: [  0.000,  0.000]
            Final occupancy bounds spin 2: [  0.000,  1.000]
================================================================================

 2      0.64220229614040 0.00331105720 0.00094387672 0.1242  0.062   20.00000000
      ideal mu1:       0.000000000000
      ideal mu2:       0.032107939325
             Q0:       0.642158786506
             G0:      -0.001154265005
   RMS gradient:       0.000600555985
     Trial step:       0.267859647169
             Q1:       0.642213388162
 Quadratic coef:       0.000363782673
 Linear coef   :      -0.000309181017
           Qmin:       0.642093092818
Quadratic minimum step length (  0.113827738668) accepted
    Initial Ne1:       0.00000000
    Initial Ne2:      20.00000015
      Final Ne1:       0.00000000
      Final Ne2:      20.00000000

=================== Penalty functional idempotency correction ==================
 RMS occupancy error at iteration   1:  0.000006 (step -0.5000 Ne1=      0.0000)
                                                               Ne2=     20.0000
            Final RMS occupancy error   :  0.000000 (Ne1=      0.0000)
                                                     Ne2=     20.0000
            Final occupancy bounds spin 1: [  0.000,  0.000]
            Final occupancy bounds spin 2: [  0.000,  1.000]
================================================================================

 3      0.64215878650612 0.00099127689 0.00088602619 0.1138  1.650   20.00000000
      ideal mu1:       0.000000000000
      ideal mu2:       0.032104653644
 4      0.64209307287830 0.00106739359 0.00079967208 0.0000  0.000   20.00000000
Finished density kernel iterations (   4)

Writing density kernel to file "hchain_cond.dkn_cond" ... done

           ........................................................
           | *** NGWF optimisation not converged ***              |
           | RMS NGWF gradient =    0.00050813667113              |
           | Criteria not satisfied:                              |
           | -> RMS NGWF gradient higher than set threshold.      |
           ========================================================

------------------------------- NGWF line search -------------------------------
WARNING: slope along search direction is positive:    0.142163E+00
         Resetting conjugate gradients!
WARNING: slope along search direction is still positive.
         Reversing search direction!!
============ Calculation of NGWF S^-1 using Hotelling algorithm ================ 
         Iteration  |  Frobenius norm and Maximum abs value    (of I-S*S_n^-1)   
               1       0.56510840E+01     0.38938768E+00
               2       0.40094043E+01     0.25795090E+00
               3       0.23885183E+01     0.15018225E+00
               4       0.93168738E+00     0.51129357E-01
               5       0.28223021E+00     0.14172773E-01
               6       0.71609457E-01     0.35907679E-02
               7       0.51264578E-02     0.25633641E-03
               8       0.26280532E-04     0.13140863E-05
               9       0.69068059E-09     0.34660275E-10
              10       0.76187658E-12     0.10658141E-12
================================================================================
Conduction Hamiltonian max eigenvalue:    6.99587038571327   13.68418844027923
Conduction Hamiltonian max eigenvalue:    7.09634832577065   13.68418844027923
============ Calculation of NGWF S^-1 using Hotelling algorithm ================ 
         Iteration  |  Frobenius norm and Maximum abs value    (of I-S*S_n^-1)   
               1       0.17068460E+01     0.12058077E+00
               2       0.35579841E+00     0.22476070E-01
               3       0.22273621E-01     0.11369901E-02
               4       0.20479136E-03     0.10345394E-04
               5       0.39804430E-07     0.19929577E-08
               6       0.10255341E-11     0.11842957E-12
================================================================================
RMS gradient                =       0.00050813667113
Trial step length           =               1.282481
Gradient along search dir.  =         -0.14216263079
Functional at step 0        =       0.64209307287830
Functional at step 1        =       0.63161982692653
Functional predicted        =       0.59373496331568
Selected quadratic step     =               0.680321
Conjugate gradients coeff.  =               0.000000
--------------------------- NGWF line search finished --------------------------
                                               
Writing Conduction NGWFs to file "hchain_cond.tightbox_ngwfs_cond"....  done

################################################################################
######################### COND NGWF CG iteration  004 ##########################
################################################################################
****** Reciprocal space K.E. preconditioning with k_zero =  3.0000 a0^-1 *******
Conduction Hamiltonian max eigenvalue:    8.74772398271186   13.68418844027923
Conduction Hamiltonian max eigenvalue:    8.83083277966139   13.68418844027923
   Initial electron number for spin 1:       0.00000000
   Initial electron number for spin 2:      20.05374059
     Final electron number for spin 1:       0.00000000
     Final electron number for spin 2:      20.00000000

=================== Penalty functional idempotency correction ==================
 RMS occupancy error at iteration   1:  0.002113 (step -0.4892 Ne1=      0.0000)
                                                               Ne2=     20.0000
 RMS occupancy error at iteration   2:  0.000035 (step -0.5002 Ne1=      0.0000)
                                                               Ne2=     20.0000
            Final RMS occupancy error   :  0.000000 (Ne1=      0.0000)
                                                     Ne2=     20.0000
            Final occupancy bounds spin 1: [  0.000,  0.000]
            Final occupancy bounds spin 2: [  0.000,  1.000]
================================================================================

................................................................................
<<<<<<<<<<<<<< LNV (Original version) density kernel optimisation >>>>>>>>>>>>>>
~~~~~~~~~~~~~~~~~~~~~~~~~~~~~~~~~~~~~~~~~~~~~~~~~~~~~~~~~~~~~~~~~~~~~~~~~~~~~~~~
iter|       energy      |  rms DeltaK |  commutator |LScoef|CGcoef|      Ne    |
      ideal mu1:       0.000000000000
      ideal mu2:       0.029677567250
             Q0:       0.593551344990
             G0:      -0.010951532701
   RMS gradient:       0.001849960532
     Trial step:       0.174613452854
             Q1:       0.592025226675
 Quadratic coef:       0.000386166624
 Linear coef   :      -0.001912284939
           Qmin:       0.591183951319
Quadratic minimum step length (  0.432340154658) accepted
    Initial Ne1:       0.00000000
    Initial Ne2:      19.99999915
      Final Ne1:       0.00000000
      Final Ne2:      20.00000000

=================== Penalty functional idempotency correction ==================
 RMS occupancy error at iteration   1:  0.000075 (step -0.4996 Ne1=      0.0000)
                                                               Ne2=     20.0000
            Final RMS occupancy error   :  0.000000 (Ne1=      0.0000)
                                                     Ne2=     20.0000
            Final occupancy bounds spin 1: [  0.000,  0.000]
            Final occupancy bounds spin 2: [  0.000,  1.000]
================================================================================

 1      0.59355134499011 0.00000000000 0.00234200747 0.4323  0.000   20.00000000
      ideal mu1:       0.000000000000
      ideal mu2:       0.029559183287
             Q0:       0.591183665737
             G0:      -0.000103716534
   RMS gradient:       0.000180001557
     Trial step:       0.274758816442
             Q1:       0.591164962667
 Quadratic coef:       0.000009793963
 Linear coef   :      -0.000028497032
           Qmin:       0.591162936619
Quadratic minimum step length (  0.399726393122) accepted
    Initial Ne1:       0.00000000
    Initial Ne2:      20.00000051
      Final Ne1:       0.00000000
      Final Ne2:      20.00000000

=================== Penalty functional idempotency correction ==================
 RMS occupancy error at iteration   1:  0.000002 (step -0.5000 Ne1=      0.0000)
                                                               Ne2=     20.0000
            Final RMS occupancy error   :  0.000000 (Ne1=      0.0000)
                                                     Ne2=     20.0000
            Final occupancy bounds spin 1: [  0.000,  0.000]
            Final occupancy bounds spin 2: [  0.000,  1.000]
================================================================================

 2      0.59118366573674 0.00240496100 0.00060166589 0.3997  0.009   20.00000000
      ideal mu1:       0.000000000000
      ideal mu2:       0.029558146794
             Q0:       0.591162935877
             G0:      -0.000126011125
   RMS gradient:       0.000198436005
     Trial step:       0.331403606912
             Q1:       0.591205688271
 Quadratic coef:       0.000084512935
 Linear coef   :      -0.000041760541
           Qmin:       0.591157777073
Quadratic minimum step length (  0.081878555585) accepted
    Initial Ne1:       0.00000000
    Initial Ne2:      20.00000013
      Final Ne1:       0.00000000
      Final Ne2:      20.00000000

=================== Penalty functional idempotency correction ==================
 RMS occupancy error at iteration   1:  0.000001 (step -0.5000 Ne1=      0.0000)
                                                               Ne2=     20.0000
            Final RMS occupancy error   :  0.000000 (Ne1=      0.0000)
                                                     Ne2=     20.0000
            Final occupancy bounds spin 1: [  0.000,  0.000]
            Final occupancy bounds spin 2: [  0.000,  1.000]
================================================================================

 3      0.59116293587718 0.00052819151 0.00053048977 0.0819  1.215   20.00000000
      ideal mu1:       0.000000000000
      ideal mu2:       0.029557888846
 4      0.59115777691979 0.00037419478 0.00050642677 0.0000  0.000   20.00000000
Finished density kernel iterations (   4)

Writing density kernel to file "hchain_cond.dkn_cond" ... done

           ........................................................
           | *** NGWF optimisation not converged ***              |
           | RMS NGWF gradient =    0.00034016276705              |
           | Criteria not satisfied:                              |
           | -> RMS NGWF gradient higher than set threshold.      |
           ========================================================

------------------------------- NGWF line search -------------------------------
============ Calculation of NGWF S^-1 using Hotelling algorithm ================ 
         Iteration  |  Frobenius norm and Maximum abs value    (of I-S*S_n^-1)   
               1       0.34649427E+01     0.24726373E+00
               2       0.12750910E+01     0.85028753E-01
               3       0.23358072E+00     0.15370560E-01
               4       0.78858542E-02     0.51932464E-03
               5       0.90227846E-05     0.59421048E-06
               6       0.11870470E-10     0.89379892E-12
================================================================================
Conduction Hamiltonian max eigenvalue:   16.54848845438905   13.68418844027923
Conduction shift updated:       16.64848845438905
Conduction Hamiltonian max eigenvalue:   16.58497312291878   16.64848845438905
============ Calculation of NGWF S^-1 using Hotelling algorithm ================ 
         Iteration  |  Frobenius norm and Maximum abs value    (of I-S*S_n^-1)   
               1       0.45979625E+01     0.31775040E+00
               2       0.24881063E+01     0.16325273E+00
               3       0.87235861E+00     0.57387126E-01
               4       0.10760051E+00     0.70796747E-02
               5       0.16379045E-02     0.10776750E-03
               6       0.37952257E-06     0.24971104E-07
               7       0.10734836E-11     0.14210855E-12
================================================================================
RMS gradient                =       0.00034016276705
Trial step length           =               0.934076
Gradient along search dir.  =         -0.06077805248
Functional at step 0        =       0.59115777691979
Functional at step 1        =       0.69727035802476
Functional predicted        =       0.58621102427570
Selected quadratic step     =               0.162781
Conjugate gradients coeff.  =              -0.448139
--------------------------- NGWF line search finished --------------------------
                                               
Writing Conduction NGWFs to file "hchain_cond.tightbox_ngwfs_cond"....  done

################################################################################
######################### COND NGWF CG iteration  005 ##########################
################################################################################
****** Reciprocal space K.E. preconditioning with k_zero =  3.0000 a0^-1 *******
Conduction Hamiltonian max eigenvalue:    9.99882681292349   16.64848845438905
Conduction Hamiltonian max eigenvalue:   10.07187278386559   16.64848845438905
   Initial electron number for spin 1:       0.00000000
   Initial electron number for spin 2:      19.99023839
     Final electron number for spin 1:       0.00000000
     Final electron number for spin 2:      20.00000000

=================== Penalty functional idempotency correction ==================
 RMS occupancy error at iteration   1:  0.000529 (step -0.5023 Ne1=      0.0000)
                                                               Ne2=     20.0000
 RMS occupancy error at iteration   2:  0.000003 (step -0.5000 Ne1=      0.0000)
                                                               Ne2=     20.0000
            Final RMS occupancy error   :  0.000000 (Ne1=      0.0000)
                                                     Ne2=     20.0000
            Final occupancy bounds spin 1: [  0.000,  0.000]
            Final occupancy bounds spin 2: [  0.000,  1.000]
================================================================================

................................................................................
<<<<<<<<<<<<<< LNV (Original version) density kernel optimisation >>>>>>>>>>>>>>
~~~~~~~~~~~~~~~~~~~~~~~~~~~~~~~~~~~~~~~~~~~~~~~~~~~~~~~~~~~~~~~~~~~~~~~~~~~~~~~~
iter|       energy      |  rms DeltaK |  commutator |LScoef|CGcoef|      Ne    |
      ideal mu1:       0.000000000000
      ideal mu2:       0.029310575292
             Q0:       0.586211505841
             G0:      -0.000711660184
   RMS gradient:       0.000471586479
     Trial step:       0.164726587562
             Q1:       0.586116346235
 Quadratic coef:       0.000022069748
 Linear coef   :      -0.000117229354
           Qmin:       0.586055832096
Quadratic minimum step length (  0.437494602652) accepted
    Initial Ne1:       0.00000000
    Initial Ne2:      19.99999999
      Final Ne1:       0.00000000
      Final Ne2:      20.00000000

=================== Penalty functional idempotency correction ==================
 RMS occupancy error at iteration   1:  0.000005 (step -0.5000 Ne1=      0.0000)
                                                               Ne2=     20.0000
            Final RMS occupancy error   :  0.000000 (Ne1=      0.0000)
                                                     Ne2=     20.0000
            Final occupancy bounds spin 1: [  0.000,  0.000]
            Final occupancy bounds spin 2: [  0.000,  1.000]
================================================================================

 1      0.58621150584089 0.00000000000 0.00082923723 0.4375  0.000   20.00000000
      ideal mu1:       0.000000000000
      ideal mu2:       0.029302791557
             Q0:       0.586055831139
             G0:      -0.000269563046
   RMS gradient:       0.000290235423
     Trial step:       0.268452962307
             Q1:       0.586157469439
 Quadratic coef:       0.000174003298
 Linear coef   :      -0.000072364998
           Qmin:       0.586048307298
Quadratic minimum step length (  0.055822499572) accepted
    Initial Ne1:       0.00000000
    Initial Ne2:      19.99999999
      Final Ne1:       0.00000000
      Final Ne2:      20.00000000

=================== Penalty functional idempotency correction ==================
 RMS occupancy error at iteration   1:  0.000001 (step -0.5000 Ne1=      0.0000)
                                                               Ne2=     20.0000
            Final RMS occupancy error   :  0.000000 (Ne1=      0.0000)
                                                     Ne2=     20.0000
            Final occupancy bounds spin 1: [  0.000,  0.000]
            Final occupancy bounds spin 2: [  0.000,  1.000]
================================================================================

 2      0.58605583113905 0.00081004675 0.00054193955 0.0558  0.379   20.00000000
      ideal mu1:       0.000000000000
      ideal mu2:       0.029302415356
             Q0:       0.586048307127
             G0:      -0.000024946550
   RMS gradient:       0.000088292765
     Trial step:       0.122416156505
             Q1:       0.586045405342
 Quadratic coef:       0.000000152075
 Linear coef   :      -0.000003053861
           Qmin:       0.586032975800
Quadratic minimum step length (  1.229134113531) accepted
    Initial Ne1:       0.00000000
    Initial Ne2:      19.99999999
      Final Ne1:       0.00000000
      Final Ne2:      20.00000000

=================== Penalty functional idempotency correction ==================
 RMS occupancy error at iteration   1:  0.000003 (step -0.5000 Ne1=      0.0000)
                                                               Ne2=     20.0000
            Final RMS occupancy error   :  0.000000 (Ne1=      0.0000)
                                                     Ne2=     20.0000
            Final occupancy bounds spin 1: [  0.000,  0.000]
            Final occupancy bounds spin 2: [  0.000,  1.000]
================================================================================

 3      0.58604830712719 0.00048778316 0.00053171440 1.2291  0.093   20.00000000
      ideal mu1:       0.000000000000
      ideal mu2:       0.029301648781
 4      0.58603297562258 0.00039720777 0.00037078177 0.0000  0.000   20.00000000
Finished density kernel iterations (   4)

Writing density kernel to file "hchain_cond.dkn_cond" ... done

           ........................................................
           | *** NGWF optimisation not converged ***              |
           | RMS NGWF gradient =    0.00032587975097              |
           | Criteria not satisfied:                              |
           | -> RMS NGWF gradient higher than set threshold.      |
           ========================================================

------------------------------- NGWF line search -------------------------------
WARNING: slope along search direction is positive:    0.602227E-01
         Resetting conjugate gradients!
WARNING: slope along search direction is still positive.
         Reversing search direction!!
============ Calculation of NGWF S^-1 using Hotelling algorithm ================ 
         Iteration  |  Frobenius norm and Maximum abs value    (of I-S*S_n^-1)   
               1       0.14736607E+01     0.10133814E+00
               2       0.30391102E+00     0.18875671E-01
               3       0.18248339E-01     0.87214861E-03
               4       0.16289885E-03     0.82184824E-05
               5       0.25704631E-07     0.12865868E-08
               6       0.10529537E-11     0.12789769E-12
================================================================================
Conduction Hamiltonian max eigenvalue:    7.85495355754929   16.64848845438905
Conduction Hamiltonian max eigenvalue:    7.94664615297247   16.64848845438905
============ Calculation of NGWF S^-1 using Hotelling algorithm ================ 
[...]
 +           7       -0.085009     (  0.0000  0.0000 -0.1700)    +
 +           8       -0.067967     (  0.0000  0.0000  0.1800)    +
 +           9        0.009906     (  0.0000  0.0000 -0.2200)    +
 +          10        0.031811     (  0.0000  0.0000  0.2300)    +
 +          11        0.129286     (  0.0000  0.0000 -0.2700)    +
 +          12        0.153487     (  0.0000  0.0000 -0.0199)    +
 +          13        0.156052     (  0.0000  0.0000  0.0299)    +
 +          14        0.156127     (  0.0000  0.0000  0.2800)    +
 +          15        0.158683     (  0.0000  0.0000 -0.0200)    +
 +          16        0.161313     (  0.0000  0.0000  0.0300)    +
 +          17        0.176864     (  0.0000  0.0000 -0.0689)    +
 +          18        0.182700     (  0.0000  0.0000 -0.0700)    +
 +          19        0.184699     (  0.0000  0.0000  0.0776)    +
 +          20        0.190864     (  0.0000  0.0000  0.0800)    +
 +                                                               +
 + ------------------------------------------------------------- +
 +  Spin=2 kpt=    3 ( 0.00000  0.00000 -0.30000)                +
 + ------------------------------------------------------------- +
 +                                                               +
 +           1       -0.223799     (  0.0000  0.0000 -0.0150)    +
 +           2       -0.219302     (  0.0000  0.0000  0.0350)    +
 +           3       -0.205036     (  0.0000  0.0000 -0.0650)    +
 +           4       -0.190523     (  0.0000  0.0000  0.0850)    +
 +           5       -0.161352     (  0.0000  0.0000 -0.1150)    +
 +           6       -0.137003     (  0.0000  0.0000  0.1350)    +
 +           7       -0.093166     (  0.0000  0.0000 -0.1650)    +
 +           8       -0.059082     (  0.0000  0.0000  0.1850)    +
 +           9       -0.000679     (  0.0000  0.0000 -0.2150)    +
 +          10        0.043131     (  0.0000  0.0000  0.2350)    +
 +          11        0.116236     (  0.0000  0.0000 -0.2650)    +
 +          12        0.152591     (  0.0000  0.0000 -0.0149)    +
 +          13        0.157725     (  0.0000  0.0000  0.0348)    +
 +          14        0.157765     (  0.0000  0.0000 -0.0150)    +
 +          15        0.163027     (  0.0000  0.0000  0.0350)    +
 +          16        0.169917     (  0.0000  0.0000  0.2850)    +
 +          17        0.173328     (  0.0000  0.0000 -0.0642)    +
 +          18        0.179050     (  0.0000  0.0000 -0.0650)    +
 +          19        0.188944     (  0.0000  0.0000  0.0809)    +
 +          20        0.195384     (  0.0000  0.0000  0.0850)    +
 +                                                               +
 + ------------------------------------------------------------- +
 +  Spin=2 kpt=    4 ( 0.00000  0.00000 -0.20000)                +
 + ------------------------------------------------------------- +
 +                                                               +
 +           1       -0.224330     (  0.0000  0.0000 -0.0100)    +
 +           2       -0.217555     (  0.0000  0.0000  0.0400)    +
 +           3       -0.208042     (  0.0000  0.0000 -0.0600)    +
 +           4       -0.186276     (  0.0000  0.0000  0.0900)    +
 +           5       -0.166828     (  0.0000  0.0000 -0.1100)    +
 +           6       -0.130306     (  0.0000  0.0000  0.1400)    +
 +           7       -0.101080     (  0.0000  0.0000 -0.1600)    +
 +           8       -0.049955     (  0.0000  0.0000  0.1900)    +
 +           9       -0.011020     (  0.0000  0.0000 -0.2100)    +
 +          10        0.054697     (  0.0000  0.0000  0.2400)    +
 +          11        0.103433     (  0.0000  0.0000 -0.2600)    +
 +          12        0.151952     (  0.0000  0.0000 -0.0100)    +
 +          13        0.157110     (  0.0000  0.0000 -0.0100)    +
 +          14        0.159661     (  0.0000  0.0000  0.0398)    +
 +          15        0.165011     (  0.0000  0.0000  0.0400)    +
 +          16        0.170059     (  0.0000  0.0000 -0.0594)    +
 +          17        0.175685     (  0.0000  0.0000 -0.0600)    +
 +          18        0.183952     (  0.0000  0.0000  0.2900)    +
 +          19        0.193286     (  0.0000  0.0000  0.0813)    +
 +          20        0.200199     (  0.0000  0.0000  0.0900)    +
 +                                                               +
 + ------------------------------------------------------------- +
 +  Spin=2 kpt=    5 ( 0.00000  0.00000 -0.10000)                +
 + ------------------------------------------------------------- +
 +                                                               +
 +           1       -0.224644     (  0.0000  0.0000 -0.0050)    +
 +           2       -0.215555     (  0.0000  0.0000  0.0450)    +
 +           3       -0.210798     (  0.0000  0.0000 -0.0550)    +
 +           4       -0.181783     (  0.0000  0.0000  0.0950)    +
 +           5       -0.172058     (  0.0000  0.0000 -0.1050)    +
 +           6       -0.123364     (  0.0000  0.0000  0.1450)    +
 +           7       -0.108751     (  0.0000  0.0000 -0.1550)    +
 +           8       -0.040586     (  0.0000  0.0000  0.1950)    +
 +           9       -0.021118     (  0.0000  0.0000 -0.2050)    +
 +          10        0.066510     (  0.0000  0.0000  0.2450)    +
 +          11        0.090878     (  0.0000  0.0000 -0.2550)    +
 +          12        0.151569     (  0.0000  0.0000 -0.0050)    +
 +          13        0.156718     (  0.0000  0.0000 -0.0050)    +
 +          14        0.161860     (  0.0000  0.0000  0.0447)    +
 +          15        0.167058     (  0.0000  0.0000 -0.0545)    +
 +          16        0.167267     (  0.0000  0.0000  0.0450)    +
 +          17        0.172601     (  0.0000  0.0000 -0.0550)    +
 +          18        0.197331     (  0.0000  0.0000  0.0697)    +
 +          19        0.198230     (  0.0000  0.0000  0.2950)    +
 +          20        0.205312     (  0.0000  0.0000  0.0950)    +
 +                                                               +
 + ------------------------------------------------------------- +
 +  Spin=2 kpt=    6 ( 0.00000  0.00000  0.00000)                +
 + ------------------------------------------------------------- +
 +                                                               +
 +           1       -0.224747     (  0.0000  0.0000  0.0000)    +
 +           2       -0.213303     (  0.0000  0.0000 -0.0500)    +
 +           3       -0.213303     (  0.0000  0.0000  0.0500)    +
 +           4       -0.177043     (  0.0000  0.0000 -0.1000)    +
 +           5       -0.177043     (  0.0000  0.0000  0.1000)    +
 +           6       -0.116180     (  0.0000  0.0000 -0.1500)    +
 +           7       -0.116180     (  0.0000  0.0000  0.1500)    +
 +           8       -0.030973     (  0.0000  0.0000 -0.2000)    +
 +           9       -0.030973     (  0.0000  0.0000  0.2000)    +
 +          10        0.078570     (  0.0000  0.0000 -0.2500)    +
 +          11        0.078570     (  0.0000  0.0000  0.2500)    +
 +          12        0.151442     (  0.0000  0.0000  0.0000)    +
 +          13        0.156587     (  0.0000  0.0000  0.0000)    +
 +          14        0.164325     (  0.0000  0.0000 -0.0496)    +
 +          15        0.164325     (  0.0000  0.0000  0.0496)    +
 +          16        0.169796     (  0.0000  0.0000 -0.0500)    +
 +          17        0.169796     (  0.0000  0.0000  0.0500)    +
 +          18        0.199423     (  0.0000  0.0000  0.0000)    +
 +          19        0.210722     (  0.0000  0.0000  0.0000)    +
 +          20        0.210725     (  0.0000  0.0000  0.0000)    +
 +                                                               +
 + ------------------------------------------------------------- +
 +  Spin=2 kpt=    7 ( 0.00000  0.00000  0.10000)                +
 + ------------------------------------------------------------- +
 +                                                               +
 +           1       -0.224644     (  0.0000  0.0000  0.0050)    +
 +           2       -0.215555     (  0.0000  0.0000 -0.0450)    +
 +           3       -0.210798     (  0.0000  0.0000  0.0550)    +
 +           4       -0.181783     (  0.0000  0.0000 -0.0950)    +
 +           5       -0.172058     (  0.0000  0.0000  0.1050)    +
 +           6       -0.123364     (  0.0000  0.0000 -0.1450)    +
 +           7       -0.108751     (  0.0000  0.0000  0.1550)    +
 +           8       -0.040586     (  0.0000  0.0000 -0.1950)    +
 +           9       -0.021118     (  0.0000  0.0000  0.2050)    +
 +          10        0.066510     (  0.0000  0.0000 -0.2450)    +
 +          11        0.090878     (  0.0000  0.0000  0.2550)    +
 +          12        0.151569     (  0.0000  0.0000  0.0050)    +
 +          13        0.156718     (  0.0000  0.0000  0.0050)    +
 +          14        0.161860     (  0.0000  0.0000 -0.0447)    +
 +          15        0.167058     (  0.0000  0.0000  0.0545)    +
 +          16        0.167267     (  0.0000  0.0000 -0.0450)    +
 +          17        0.172601     (  0.0000  0.0000  0.0550)    +
 +          18        0.197331     (  0.0000  0.0000 -0.0697)    +
 +          19        0.198230     (  0.0000  0.0000 -0.2950)    +
 +          20        0.205312     (  0.0000  0.0000 -0.0950)    +
 +                                                               +
 + ------------------------------------------------------------- +
 +  Spin=2 kpt=    8 ( 0.00000  0.00000  0.20000)                +
 + ------------------------------------------------------------- +
 +                                                               +
 +           1       -0.224330     (  0.0000  0.0000  0.0100)    +
 +           2       -0.217555     (  0.0000  0.0000 -0.0400)    +
 +           3       -0.208042     (  0.0000  0.0000  0.0600)    +
 +           4       -0.186276     (  0.0000  0.0000 -0.0900)    +
 +           5       -0.166828     (  0.0000  0.0000  0.1100)    +
 +           6       -0.130306     (  0.0000  0.0000 -0.1400)    +
 +           7       -0.101080     (  0.0000  0.0000  0.1600)    +
 +           8       -0.049955     (  0.0000  0.0000 -0.1900)    +
 +           9       -0.011020     (  0.0000  0.0000  0.2100)    +
 +          10        0.054697     (  0.0000  0.0000 -0.2400)    +
 +          11        0.103433     (  0.0000  0.0000  0.2600)    +
 +          12        0.151952     (  0.0000  0.0000  0.0100)    +
 +          13        0.157110     (  0.0000  0.0000  0.0100)    +
 +          14        0.159661     (  0.0000  0.0000 -0.0398)    +
 +          15        0.165011     (  0.0000  0.0000 -0.0400)    +
 +          16        0.170059     (  0.0000  0.0000  0.0594)    +
 +          17        0.175685     (  0.0000  0.0000  0.0600)    +
 +          18        0.183952     (  0.0000  0.0000 -0.2900)    +
 +          19        0.193286     (  0.0000  0.0000 -0.0813)    +
 +          20        0.200199     (  0.0000  0.0000 -0.0900)    +
 +                                                               +
 + ------------------------------------------------------------- +
 +  Spin=2 kpt=    9 ( 0.00000  0.00000  0.30000)                +
 + ------------------------------------------------------------- +
 +                                                               +
 +           1       -0.223799     (  0.0000  0.0000  0.0150)    +
 +           2       -0.219302     (  0.0000  0.0000 -0.0350)    +
 +           3       -0.205036     (  0.0000  0.0000  0.0650)    +
 +           4       -0.190523     (  0.0000  0.0000 -0.0850)    +
 +           5       -0.161352     (  0.0000  0.0000  0.1150)    +
 +           6       -0.137003     (  0.0000  0.0000 -0.1350)    +
 +           7       -0.093166     (  0.0000  0.0000  0.1650)    +
 +           8       -0.059082     (  0.0000  0.0000 -0.1850)    +
 +           9       -0.000679     (  0.0000  0.0000  0.2150)    +
 +          10        0.043131     (  0.0000  0.0000 -0.2350)    +
 +          11        0.116236     (  0.0000  0.0000  0.2650)    +
 +          12        0.152591     (  0.0000  0.0000  0.0149)    +
 +          13        0.157725     (  0.0000  0.0000 -0.0348)    +
 +          14        0.157765     (  0.0000  0.0000  0.0150)    +
 +          15        0.163027     (  0.0000  0.0000 -0.0350)    +
 +          16        0.169917     (  0.0000  0.0000 -0.2850)    +
 +          17        0.173328     (  0.0000  0.0000  0.0642)    +
 +          18        0.179050     (  0.0000  0.0000  0.0650)    +
 +          19        0.188944     (  0.0000  0.0000 -0.0809)    +
 +          20        0.195384     (  0.0000  0.0000 -0.0850)    +
 +                                                               +
 + ------------------------------------------------------------- +
 +  Spin=2 kpt=   10 ( 0.00000  0.00000  0.40000)                +
 + ------------------------------------------------------------- +
 +                                                               +
 +           1       -0.223039     (  0.0000  0.0000  0.0200)    +
 +           2       -0.220796     (  0.0000  0.0000 -0.0300)    +
 +           3       -0.201780     (  0.0000  0.0000  0.0700)    +
 +           4       -0.194523     (  0.0000  0.0000 -0.0800)    +
 +           5       -0.155632     (  0.0000  0.0000  0.1200)    +
 +           6       -0.143457     (  0.0000  0.0000 -0.1300)    +
 +           7       -0.085009     (  0.0000  0.0000  0.1700)    +
 +           8       -0.067967     (  0.0000  0.0000 -0.1800)    +
 +           9        0.009906     (  0.0000  0.0000  0.2200)    +
 +          10        0.031811     (  0.0000  0.0000 -0.2300)    +
 +          11        0.129286     (  0.0000  0.0000  0.2700)    +
 +          12        0.153487     (  0.0000  0.0000  0.0199)    +
 +          13        0.156052     (  0.0000  0.0000 -0.0299)    +
 +          14        0.156127     (  0.0000  0.0000 -0.2800)    +
 +          15        0.158683     (  0.0000  0.0000  0.0200)    +
 +          16        0.161313     (  0.0000  0.0000 -0.0300)    +
 +          17        0.176864     (  0.0000  0.0000  0.0689)    +
 +          18        0.182700     (  0.0000  0.0000  0.0700)    +
 +          19        0.184699     (  0.0000  0.0000 -0.0776)    +
 +          20        0.190864     (  0.0000  0.0000 -0.0800)    +
 +                                                               +
 + ------------------------------------------------------------- +
 +  Spin=2 kpt=   11 ( 0.00000  0.00000  0.50000)                +
 + ------------------------------------------------------------- +
 +                                                               +
 +           1       -0.222040     (  0.0000  0.0000  0.0250)    +
 +           2       -0.222040     (  0.0000  0.0000 -0.0250)    +
 +           3       -0.198275     (  0.0000  0.0000  0.0750)    +
 +           4       -0.198275     (  0.0000  0.0000 -0.0750)    +
 +           5       -0.149667     (  0.0000  0.0000  0.1250)    +
 +           6       -0.149667     (  0.0000  0.0000 -0.1250)    +
 +           7       -0.076609     (  0.0000  0.0000  0.1750)    +
 +           8       -0.076609     (  0.0000  0.0000 -0.1750)    +
 +           9        0.020736     (  0.0000  0.0000  0.2250)    +
 +          10        0.020736     (  0.0000  0.0000 -0.2250)    +
 +          11        0.142583     (  0.0000  0.0000  0.2750)    +
 +          12        0.142583     (  0.0000  0.0000 -0.2750)    +
 +          13        0.154640     (  0.0000  0.0000  0.0249)    +
 +          14        0.154640     (  0.0000  0.0000 -0.0249)    +
 +          15        0.159865     (  0.0000  0.0000  0.0250)    +
 +          16        0.159865     (  0.0000  0.0000 -0.0250)    +
 +          17        0.180659     (  0.0000  0.0000  0.0735)    +
 +          18        0.180659     (  0.0000  0.0000 -0.0735)    +
 +          19        0.186637     (  0.0000  0.0000  0.0750)    +
 +          20        0.186637     (  0.0000  0.0000 -0.0750)    +
 +                                                               +
 + ============================================================= +
+------------------------------------------------------------------------------+
|               Conduction properties calculation complete                     |
+------------------------------------------------------------------------------+

------------------------------ TIMING INFORMATION ------------------------------
TOTAL TIME:     372.123s on     4 node(s)
================== AVERAGE TIMINGS FROM ALL NODES (CUMULATIVE) =================
|| TAG                                   n calls    cpu time   %total  Gflops ||
|| total_time                          :       1     372.12s 100.000%  ------ ||
|| ewald_calculate_energy              :       1       0.01s   0.001%  ------ ||
|| sparse_init                         :       3       0.02s   0.006%  ------ ||
|| restart_ngwfs_tightbox_input        :       1       0.04s   0.010%  ------ ||
|| basis_extract_function_from_box     :   52165       3.65s   0.982%  ------ ||
|| integrals_brappd_ketppd             :      44       0.21s   0.057%  ------ ||
|| integrals_kinetic                   :      23      11.05s   2.969%  ------ ||
|| basis_copy_function_to_box          :    1575       1.46s   0.392%  ------ ||
|| fourier_apply_box_pair              :    1026      16.73s   4.497%   9.667 ||
|| fourier_apply_box                   :    4134     216.04s  58.057%  13.621 ||
|| sparse_hotelling_invert             :      23       0.05s   0.014%  ------ ||
|| pseudo_make_structure_factor        :       1       0.05s   0.013%  ------ ||
|| pseudopotentials_local_on_grid      :       1       0.07s   0.018%  ------ ||
|| fourier_apply_cell_backward         :       2       0.09s   0.025%   4.933 ||
|| restart_kernel_read                 :       1       0.00s   0.000%  ------ ||
|| density_on_dbl_grid                 :       1       2.20s   0.592%  ------ ||
|| density_batch_row_sums              :       1       0.02s   0.006%  ------ ||
|| basis_add_function_to_box           :   79310       5.01s   1.347%  ------ ||
|| density_batch_interp_deposit        :       1       2.05s   0.552%  ------ ||
|| density_fftbox_interpolate_multiply :       5       1.73s   0.464%  ------ ||
|| density_fftbox_deposit_to_cell      :       5       0.33s   0.088%  ------ ||
|| cell_grid_deposit_box               :      10       0.33s   0.088%  ------ ||
|| hartree_on_grid                     :       1       0.11s   0.030%  ------ ||
|| fourier_apply_cell_forward          :       1       0.04s   0.011%   5.450 ||
|| xc_energy_potential                 :       1       0.15s   0.041%  ------ ||
|| integrals_locpot_dbl_grid           :      48     184.17s  49.492%  ------ ||
|| potential_apply_to_ngwf_batch       :      96     179.20s  48.157%  ------ ||
|| cell_grid_extract_box               :    1424      12.75s   3.426%  ------ ||
|| restart_kernel_write                :      11       0.17s   0.046%  ------ ||
|| ngwf_cg_optimise                    :       1     346.27s  93.053%  ------ ||
|| lnv_denskernel_optimise_cg          :      10       0.44s   0.118%  ------ ||
|| kernel_fix                          :      37       0.12s   0.032%  ------ ||
|| kernel_purify                       :     122       0.08s   0.022%  ------ ||
|| lnv_gradient_norm                   :      37       0.07s   0.018%  ------ ||
|| ngwf_gradient_lnv                   :      10     169.59s  45.573%  ------ ||
|| ngwf_gradient_coeffs                :      10       0.04s   0.011%  ------ ||
|| ngwf_gradient_batch                 :      20     166.55s  44.757%  ------ ||
|| restart_ngwfs_tightbox_output       :       9       1.56s   0.420%  ------ ||
|| properties_calculate                :       4       0.16s   0.042%  ------ ||
================================================================================

Job completed: 21-09-2011 16:52 (+0100)

