Defaulting to ethernet
No MPI process pinning
Starting MPD ring...
PBS has allocated the following nodes:
cx1-8-5-2
cx1-8-5-2
cx1-8-5-2
cx1-8-5-2
---
mpiexec.intel -genv I_MPI_DEVICE ssm -genv I_MPI_DEBUG 0 -genv I_MPI_PIN no -genv I_MPI_PIN_MODE none -genv I_MPI_FALLBACK_DEVICE disable -genv DAPL_MAX_CM_RETRIES 500 -genv DAPL_MAX_CM_RESPONSE_TIME 300 -genv I_MPI_DAPL_CONNECTION_TIMEOUT 300 -machinefile /tmp/pbs.63820.cx1b/tmp.WQxBZ10713 -n 4 -wdir /home/nhine/ONETEP/devel/tests/test19 /home/nhine/ONETEP/devel/bin/onetep.cx1 ethene_cond

Job output begins below
-----------------------
 +---------------------------------------------------------------+
 |                                                               |
 |        ####### #     # ####### ####### ####### ######         |
 |        #     # ##    # #          #    #       #     #        |
 |        #     # # #   # #          #    #       #     #        |
 |        #     # #  #  # #####      #    #####   ######         |
 |        #     # #   # # #          #    #       #              |
 |        #     # #    ## #          #    #       #              |
 |        ####### #     # #######    #    ####### #              |
 |                                                               |
 |        Linear-Scaling Ab Initio Total Energy Program          |
 |                                                               |
 |          Release for academic collaborators of ODG            |
 |                                              Version 3.0.0    |
 |                                                               |
 +---------------------------------------------------------------+
 |                                                               |
 |  Authors:                                                     |
 |  Peter D. Haynes, Nicholas D. M. Hine, Arash. A. Mostofi,     |
 |  Mike C. Payne and Chris-Kriton Skylaris                      |
 |                                                               |
 |  Contributors:                                                |
 |  P. W. Avraam, S. J. Clark, O. Dieguez, S. M. M. Dubois,      |
 |  J. Dziedzic, H. H. Helal, Q. O. Hill, D. D. O`Regan,         |
 |  C. J. Pickard, M. I. J. Probert, L. Ratcliff, M. Robinson    |
 |  and A. Ruiz Serrano                                          |
 |                                                               |
 |                                   Copyright (c) 2004-2011     |
 |                                                               |
 |  Please cite:                                                 |
 |  "Introducing ONETEP: Linear-scaling density functional       |
 |   simulations on parallel computers".                         |
 |   C.-K. Skylaris, P. D. Haynes, A. A. Mostofi, M. C. Payne.   |
 |   J. Chem. Phys. 122 084119 (2005).                           |
 |                                                               |
 |          in all publications arising from your use of ONETEP. |
 |                                                               |
 +---------------------------------------------------------------+
 |                                                               |
 |   ONETEP is based on developments described in the following  |
 |   publications:                                               |
 |                                                               |
 |  "Nonorthogonal generalized Wannier function pseudopotential  |
 |   plane-wave method".                                         |
 |   C.-K. Skylaris, A. A. Mostofi, P. D. Haynes, O. Dieguez,    |
 |   M. C. Payne.                                                |
 |   Phys. Rev. B 66 035119 (2002).                              |
 |                                                               |
 |  "Preconditioned iterative minimization for linear-scaling    |
 |   electronic structure calculations".                         |
 |   A. A. Mostofi, P. D. Haynes, C.-K. Skylaris, M. C. Payne.   |
 |   J. Chem. Phys. 119(17), pp.8842-8848 (2003).                |
 |                                                               |
 |  "Total-energy calculations on a real space grid with         |
 |   localized functions and a plane-wave basis".                |
 |   A. A. Mostofi, C.-K. Skylaris, P. D. Haynes, M. C. Payne.   |
 |   Comput. Phys. Commun. 147, pp.788-802 (2002).               |
 |                                                               |
 |  "Accurate kinetic energy evaluation in electronic structure  |
 |   calculations with localized functions on real space grids"  |
 |   C.-K. Skylaris, A. A. Mostofi, P. D. Haynes, C. J. Pickard, |
 |   M. C. Payne.                                                |
 |   Comput. Phys. Commun. 140, pp.315-322 (2001).               |
 |                                                               |
 +---------------------------------------------------------------+

Job started: 20-09-2011 14:37 (+0100)

Running on     4 processors.

Reading parameters from file "ethene_cond.dat" ...... done
Reading geometry and species blocks from file "ethene_cond.dat" ...    
... done
-------------------------------------------------------------------------------
---------------------------- RUN-TIME PARAMETERS ------------------------------
-------------------------------------------------------------------------------
task                        : COND *! Type of calculation (String)              
cutoffenergy                : 14.6995976898129      hartree *! Plane wave kinet 
kernelcutoff                : 1000.00000000000 *! Density kernel radius in Bohr 
xcfunctional                : LDA *! Exchange-correlation functional (String)   
libxcxfuncid                : 0 *! Functional identifier for which exchange fun 
libxccfuncid                : 0 *! Functional identifier for which correlation  
charge                      : 0.000000000000000E+000 *! The total charge of the 
spin                        : 0 *! Total spin of system (Integer)               
spinpolarized               : F *! Switch for spin polarization (Boolean)       
spinpolarised               : F *! Switch for spin polarisation (Boolean)       
constantefield              : 0.0 0.0 0.0 *! Cartesian coordinates of constant  
fftboxpref                  : 0 0 0 *! Preferred FFT box dimensions (String)    
ppdnpoints                  : 0 0 0 *! PPD edge length in grid points for each  
psincspacing                : 0.0 0.0 0.0 *! PSINC grid spacing in atomic units 
oldinput                    : F *! Read old-format input file (Boolean)         
develcode                   : *! For development code only (String)             
nnho                        : F *! Initialise NGWFs to nonorthogonal natural hy 
ngwfhalo                    : -1.00000000000000 *! Halo extension to NGWF radii 
nonscforces                 : F *! Include non self-consistent forces due to NG 
maxitpalsermano             : 50 *! Maximum number of iterations for Palser-Man 
maxitpen                    : 3 *! Max number of penalty functional iterations  
penparam                    : 4.00000000000000 *! Penalty functional parameter  
minitlnv                    : 3 *! Min number of LNV iterations (Integer)       
maxitlnv                    : 8 *! Max number of LNV iterations (Integer)       
maxitlnvcoarse              : 0 *! Max number of low-accuracy LNV iterations (I 
lnvthresholdorig            : 1.000000000000000E-009 *! LNV convergence thresho 
lnvcgtype                   : LNV_FLETCHER *! Type of CG coefficient for LNV de 
lnvcgmaxstep                : 3.00000000000000 *! Maximum length of trial step  
exactlnv                    : T *! Use original LNV algorithm (Boolean)         
oldlnv                      : F *! Use LNV algorithm backwards compatible pre D 
lnvchecktrialsteps          : F *! Check stability of kernel at each trial step 
kerfix                      : 1 *! Density kernel fixing approach (Integer)     
maxitkernelfix              : 3 *! Maximum # iterations of Penalty Functional i 
initialdensrealspace        : F *! Construct initial density in real space from 
kerneldiis                  : F *! Use kernel DIIS in the inner loop (Boolean)  
kerneldiistype              : P *! Density mixing method (String)               
kerneldiismax               : 10 *! Max number of kernels saved during kernel D 
kerneldiismaxit             : 25 *! Max number of kernel DIIS iterations (Integ 
kerneldiisthres             : 1.000000000000000E-009 *! Density mixing converge 
kerneldiisliter             : 5 *! Number of linear mixing iterations (Integer) 
kerneldiiscin               : 0.900000000000000 *! Coefficient for the input ke 
kerneldiiscriteria          : 1000 *! Density mixing convergence criteria (Stri 
maxitngwfcg                 : 60 *! Max number of NGWF conjugate gradients (CG) 
ngwfcgtype                  : NGWF_FLETCHER *! Type of CG coefficient for NGWF  
ngwfcgmaxstep               : -8.00000000000000 *! Maximum length of trial step 
eleccgmax                   : 5 *! Number of NGWF iterations to reset CG (Integ 
precondscheme               : TETER *! Recip-space preconditioning scheme (Stri 
kzero                       : 3.00000000000000 *! KE preconditioning parameter  
rprecond                    : 2.00000000000000 *! Radial cut-off for real-space 
precondrecip                : T *! Recip-space KE preconditioning (Boolean)     
precondreal                 : F *! Real-space KE preconditioning (Boolean)      
smoothscheme                : NONE *! Smoothing scheme for the NGWF gradients a 
rsmooth                     : 1.50000000000000      bohr *! Radius of the unsha 
ksmooth                     : 5.00000000000000 *! Characteristic wavelength of  
occmix                      : 0.250000000000000 *! Mix fraction of occupancy pr 
kernelupdate                : F *! Update density kernel during NGWF line searc 
kernelchristoffelupdate     : F *! Update density kernel during NGWF line searc 
maxithotelling              : 50 *! Number of Hotelling iteration per NGWF chan 
maxresidhotelling           : 1.000000000000000E-012 *! Max allowed value in Ho 
maxitngwfdiis               : 0 *! Max number of NGWF DIIS steps (Integer)      
ngwfdiissize                : 4 *! Max size of the DIIS iterative subspace (Int 
ngwfdiisreset               : 8 *! Max number of iteration for the resetting of 
ngwfdiismaxstep             : 2.00000000000000 *! Max length of trial step for  
ngwfthresholdorig           : 1.000000000000000E-003 *! NGWF convergence thresh 
elecenergytol               : -1.000000000000000E-003 hartree *! Tolerance on t 
elecforcetol                : -1.000000000000000E-003 ha/bohr *! Tolerance on m 
ngwfmaxgrad                 : -2.000000000000000E-005 *! Maximum permissible va 
deltaeconv                  : T *! Use consecutive energy gains as a criterion  
locpotintbatchsize          : 10 *! Size of NGWF in fftbox batch for locpot int 
kineticintbatchsize         : 10 *! Size of NGWF in fftbox batch for kinetic in 
densitybatchsize            : 10 *! Size of NGWF in fftbox batch for charge den 
ngwfgradbatchsize           : 10 *! Size of NGWF in fftbox batch for NGWF gradi 
densethreshold              : 0.400000000000000 *! Threshold for matrix segment 
commsgroupsize              : 4 *! Number of nodes in a group (determines comms 
ovlpfornonlocal             : F *! Overlap sparsity for nonlocal (Boolean)      
usespacefillingcurve        : T *! Re-arrange atoms according to space-filling  
corehamdenskernguess        : T *! Initial guess for density kernel from core H 
checkatoms                  : T *! Check atoms on top of each other (Boolean)   
locpotscheme                : FULL *! Scheme for evaluating local potential mat 
smoothprojectors            : -0.400000000000000 *! Halfwidth of Gaussian filte 
smoothlocpspot              : -0.400000000000000 *! Halfwidth of Gaussian filte 
oddpsincgrid                : F *! Force odd number of points in simcell psinc  
evenpsincgrid               : F *! Force even number of points in simcell psinc 
realspaceprojectors         : F *! Whether to evaluate and store projectors in  
outputdetail                : VERBOSE *! Level of output detail (String)        
pawoutputdetail             : DEFAULT *! Level of output detail for PAW: BRIEF, 
timingslevel                : 0 *! Level of timings output: 0(none) 1(nodes sum 
writeparams                 : T *! Output runtime parameters at startup (Boolea 
writeforces                 : F *! Write ionic forces (Boolean)                 
writepositions              : T *! Write ionic positions each geometry or MD st 
writexyz                    : F *! Output coordinates in .xyz file (Boolean)    
printqc                     : T *! Print Quality Control information (Boolean)  
cubeformat                  : T *! Allow .cube format for plot outputs (Boolean 
dxformat                    : F *! Allow .dx format for plot outputs (Boolean)  
dxformatcoarse              : F *! Output only points on the coarse grid (Boole 
dxformatdigits              : 7 *! Number of significant digits in .dx output ( 
grdformat                   : F *! Allow .grd format for plot outputs (Boolean) 
writedensityplot            : F *! Write the charge density in plotting format  
writengwfplot               : F *! Write NGWFs in plotting format (Boolean)     
writengwfgradplot           : F *! Write NGWF Gradients in plotting format (Boo 
writengwfradial             : 0 *! Write NGWFs radial distributions (Integer)   
writengwfgradradial         : 0 *! Write NGWFs gradients radial distributions ( 
writeradialstep             : 5.000000000000000E-003 bohr *! Define the grid st 
writeradialsmear            : 1.000000000000000E-002 bohr *! Define the gaussia 
readdenskern                : T *! Read density kernel restart information (Boo 
writedenskern               : T *! Write density kernel restart information (Bo 
readtightboxngwfs           : T *! Read in universal tightbox NGWFs restart inf 
writetightboxngwfs          : T *! Write in universal tightbox NGWFs restart in 
writeconvergeddkngwfs       : F *! Only write Density Kernel and NGWFs upon con 
readswngwfs                 : F *! Read NGWFs restart information in spherical  
writeswngwfs                : F *! Write NGWFs restart information in spherical 
writemaxl                   : 3 *! Maximum angular momentum number when writing 
readmaxl                    : 3 *! Maximum angular momentum number when reading 
extransw                    : 0 *! Maximum number of zeros of the sph Bessel fu 
paw                         : F *! Uses a PAW construction to find correct core 
finegridscale               : 2.00000000000000 *! Ratio of size of fine grid to 
dblgridscale                : 2.00000000000000 *! Ratio of charge density / pot 
augfuncsrecip               : T *! Construct Augmentation functions in recip sp 
dispersion                  : 0 *! Select dispersion correction (Integer)       
vdwdcoeff                   : -1.00000000000000 *! Replacement VDW damping coef 
hubbardmaxiter              : 0 *! Maximum number of DFT+U projector optimisati 
hubbardenergytol            : 1.000000000000000E-008 hartree *! Energy toleranc 
hubbardconvwin              : 2 *! Energy convergence window when using DFT+U p 
hubbardprojmixing           : 0.000000000000000E+000 *! Proportion of old Hubba 
hubbardfunctional           : 1 *! DFT+U energy functional to use (Integer)     
hubbardtensorcorr           : 1 *! DFT+U projector tensorial correction to use  
hubbardngwfspinthreshold    : 2.000000000000000E-005 *! NGWF RMS  gradient thre 
coulombcutoffradius         : 0.000000000000000E+000 bohr *! Radius of sphere o 
coulombcutofflength         : 0.000000000000000E+000 bohr *! Length of cylinder 
coulombcutofftype           : NONE *! Type of cutoff coulomb interaction: NONE, 
coulombcutoffwriteint       : F *! Write real-space cutoff Coulomb interaction  
pbccorrectioncutoff         : 0.000000000000000E+000 *! alpha*L cutoff paramete 
doproperties                : T *! Allow calculation of properties (Boolean)    
numeigenvalues              : 10 *! Number of energy and occupancy eigenvalues  
homodensplot                : -1 *! Number of squared MOs to plot from HOMO and 
lumodensplot                : -1 *! Number of squared MOs to plot from LUMO and 
homoplot                    : 0 *! Number of MOs to plot from HOMO and lower (I 
lumoplot                    : 0 *! Number of MOs to plot from LUMO and higher ( 
dossmear                    : 3.674932438755288E-003 hartree *! Half width of s 
ldossmear                   : 3.674899422453221E-003 hartree *! Lorentzian broa 
popncalculate               : F *! Allow population analysis (Boolean)          
popnbondcutoff              : 5.66917840375065      bohr *! Bond length cutoff  
ngwfanalysis                : F *! Perform NGWF analysis (Boolean)              
polarisationcalculate       : F *! Allow calculation of polarisation (Boolean)  
spreadcalculate             : F *! Calculate spread of NGWFs (Boolean)          
geommodulusest              : 1.700000000000000E-002 ha/bohr**3 *! The estimate 
geomfrequencyest            : 7.600000000000000E-003 hartree *! The estimated a 
geomenergytol               : 1.000000000000000E-006 hartree *! Geometry optimi 
geomforcetol                : 2.000000000000000E-003 ha/bohr *! Geometry optimi 
geomdisptol                 : 5.000000000000000E-003 bohr *! Geometry optimizat 
geommaxiter                 : 50 *! Maximum number of geometry optimization ite 
geomconvergencewin          : 2 *! Geometry optimization convergence tolerance  
geomcontinuation            : F *! Read information for continuation of a previ 
geombackupiter              : 1 *! Number of geometry optimisation iterations b 
geomresetdkngwfsiter        : 6 *! Number of geom iterations between resets of  
geomreusedkngwfs            : T *! Re-use density kernel and NGWFs during geome 
geomprintinvhessian         : F *! Write inverse Hessian to standard output (Bo 
geommethod                  : CARTESIAN *! Method for geometry optimization (St 
tssearchmethod              : LSTQST *! Specifies method to be used for TS sear 
tssearchlstqstprotocol      : LSTMAXIMUM *! Specifies LSTQST protocol (String)  
tssearchqstmaxiter          : 5 *! Specifies maximum number of QST steps (Integ 
tssearchcgmaxiter           : 20 *! Specifies maximum number of CG steps (Integ 
tssearchforcetol            : 5.000000000000000E-003 ha/bohr *! Force tolerance 
tssearchdisptol             : 1.000000000000000E-002 bohr *! Displacement toler 
mdproperties                : F *! Compute vibrational and IR spectra from MD ( 
mdrestart                   : F *! Restart MD from backup files (Boolean)       
mddeltat                    : 40.0000000000000      aut *! Molecular dynamics t 
mdnumiter                   : 100 *! Maximum number of molecular dynamics itera 
mdresetdenskernngwfs        : 5 *! Reset mixing scheme for initial guess of NGW 
mtsxi                       : F *! Internal thermostat in the multiple time-ste 
mtsnstep                    : 1 *! Number of time steps in the multiple time-st 
mtsngwfthreshold            : 5.000000000000000E-004 *! NGWF convergence thresh 
mtsngwfthreshold            : 5.000000000000000E-006 *! NGWF convergence thresh 
mixdenskernnum              : 0 *! Number of coefficients used to build new gue 
mixngwfsnum                 : 0 *! Number of coefficients used to build new gue 
mixdenskerntype             : 0 *! Type of mixing used to build new guess for d 
mixngwfscoeff               : 1.00000000000000 *! Coefficient for mixing extrap 
mixngwfstype                : 0 *! Type of mixing used to build new guess for N 
mixlocallength              : 0.000000000000000E+000 bohr *! Max radius for loc 
mixlocalsmear               : 0.000000000000000E+000 bohr *! Radial smearing fo 
condreaddenskern            : F *! Read in conduction density kernel (Boolean)  
condreadtightboxngwfs       : F *! Read in universal tightbox conduction NGWFs  
condfixedshift              : F *! Fixed projected conduction Hamiltonian shift 
condcalcmaxeigen            : T *! Calculate maximum conduction Hamiltonian eig 
condnumstates               : 6 *! Number of conduction states to be optimised  
condkernelcutoff            : 1000.00000000000 *! Conduction density kernel rad 
condinitshift               : 1.00000000000000 *! Initial shifting factor for p 
condshiftbuffer             : 0.100000000000000 *! Additional buffer for updati 
condnumextrastates          : 4 *! Number of extra conduction states for initia 
condnumextraits             : 2 *! Number of NGWF iterations with extra conduct 
condplotjointorbitals       : T *! Plot orbitals in the joint basis following a 
condplotvcorbitals          : F *! Plot orbitals in the val and cond NGWF basis 
condcalcopticalspectra      : T *! Calculate matrix elements for optical absorp 
condspeccalcmommatels       : T *! Calculate momentum matrix elements (default  
condspeccalcnonloccomm      : T *! Calculate nonlocal commutator for momentum m 
condspeccontderiv           : T *! Calculate non-local commuator using continuo 
condspecnonloccommshift     : 1.000000000000000E-004 *! Finite difference shift 
bskpointpathspacing         : 0.188972700000000      1/bohr *! K-point spacing  
bsnumeigenvalues            : -1 *! Num of energy and occ. eigenvalues to print 
bsunfold                    : 0 0 0 *! Number of times to unfold Brillouin zone 
bsmethod                    : TB *! Method to use: 'KP' or 'TB' (String)        
dotddft                     : F *! Allow Time-Dependent DFT calculation (Boolea 
tddftmaximumenergy          : 1.00000000000000      hartree *! Desired maximum  
tddftresolution             : 1.000000000000000E-003 hartree *! Desired resolut 
tddftpropagationmethod      : CRANKNICHOLSON *! Method used to integrate von Ne 
tddftsparsitylevel          : 0 *! Matrix sparsity when computing propagators e 
tddfttammdancoff            : F *! Invoke Tamm-Dancoff decoupling approximation 
tddftdipolekickstrength     : 0.0 0.0 0.0 *! Maximum allowed phase shift in TDD 
tddftxcfunctional           : LDA *! Exchange-correlation functional for TDDFT  
tddfthamiltonianmixing      : 0 *! Order of polynomial extrapolation to H(t + h 
tddftdamping                : 0.000000000000000E+000 hartree *! Energy smearing 
tddftenforcedidempotency    : F *! Project out at each timestep that part of ch 
tddftmaxithotelling         : 50 *! Number of Hotelling iteration per propagati 
tddftmaxresidhotelling      : 1.000000000000000E-018 *! Max allowed value in Ho 
tddftinvoverlapexact        : T *! Renew inverse overlap with O N^3 algorithm b 
isimplicitsolvent           : F *! Use implicit solvent? (Boolean)              
issmearedionrep             : F *! Implicit solvent: use smeared ions for elect 
isincludecavitation         : F *! Implicit solvent: include cavitation energy  
isdensitythreshold          : 7.800000000000000E-004 *! Implicit solvent: rho_0 
issolvationbeta             : 1.30000000000000 *! Implicit solvent: beta parame 
isbulkpermittivity          : 1.00000000000000 *! Implicit solvent: eps_inf par 
ismultigriddefecterrortol   : 1.000000000000000E-002 *! Implicit solvent: stop  
ismultigriderrortol         : 1.000000000000000E-005 *! Implicit solvent: stop  
issmearedionwidth           : 0.800000000000000 *! Implicit solvent: Width of G 
issurfacethickness          : 2.000000000000000E-004 *! Implicit solvent: thick 
issolventsurfacetension     : 4.762400000000000E-005 ha/bohr**2 *! Implicit sol 
ismultigridmaxiters         : 100 *! Implicit solvent: max number of iterations 
ismultigridnlevels          : 4 *! Implicit solvent: number of levels in multig 
isdiscretizationorder       : 8 *! Implicit solvent: discretization order (2nd, 
isbccoarseness              : 5 *! Open BCs: controls boundary condition coarse 
isbcsurfacecoarseness       : 1 *! Open BCs: controls boundary condition coarse 
isbcthreshold               : 1.000000000000000E-009 *! Open BCs: controls boun 
ischecksolvenergygrad       : F *! Implicit solvent: sanity check the energy gr 
issolvationmethod           : DIRECT *! Implicit solvent: direct or corrective  
isdielectricmodel           : FIX_INITIAL *! Implicit solvent: how the cavity i 
isdielectricfunction        : FGF *! Implicit solvent: how the cavity is determ 
issolvationoutputdetail     : NONE *! Implicit solvent: controls extra output ( 
openbcionion                : F *! Force open BCs in ion-ion energy (Boolean)   
openbchartree               : F *! Force open BCs in Hartree potential (Boolean 
openbcpspot                 : F *! Force open BCs in local pseudopotential (Boo 
openbcpspotfinetunenptsx    : 100000 *! Open BCs in local pseudo, npts_x parame 
openbcpspotfinetunealpha    : 0.300000000000000 *! Open BCs in local pseudo, al 
openbcpspotfinetunef        : -1 *! Open BCs in local pseudo, fineness paramete 
hfxintegration              : 2 *! Variant of the numerical pointwise approach  
nlppforexchange             : F *! Give exchange matrix same sparsity as non-lo 
radialsegments              : 50 *! Number of radial segments in vmatrix evalua 
angularsegments             : 50 *! Number of angular segments in vmatrix evalu 
writenbo                    : F *! Performs Natural Population Analysis and wri 
nboinitlclowdin             : F *! Performs atom-centered Lowdin symmetric orth 
nbowritelclowdin            : F *! Write a GENNBO FILE.47 containing all the at 
nbowritenpacomp             : F *! Writes individual NAO population into the st 
nboscaledm                  : T *! Scales density matrix in the FILE.47 output  
%block positionsabs         : *! Cartesian positions for each atom (Block)      
C     21.231469   19.962216   20.048416                                         
H     22.316684   21.381117   21.086741                                         
H     22.305600   18.474510   19.097577                                         
C     18.768395   20.037541   19.951432                                         
H     17.694385   21.525477   20.902418                                         
H     17.683467   18.617139   18.913416                                         
%endblock positionsabs      : *! Cartesian positions for each atom (Block)      
%block latticecart          : *! The simulation cell lattice vectors (Block)    
40.000    0.000    0.000                                                        
0.000   40.000    0.000                                                         
0.000    0.000   40.000                                                         
%endblock latticecart       : *! The simulation cell lattice vectors (Block)    
%block species              : *! Species information (symbol, atomic number, nu 
H     H   1  1  5.50                                                            
C     C   6  4  6.00                                                            
%endblock species           : *! Species information (symbol, atomic number, nu 
%block speciespot           : *! Pseudopotential name for each species (Block)  
H     "../../pseudo/hydrogen.recpot"                                            
C     "../../pseudo/carbon.recpot"                                              
%endblock speciespot        : *! Pseudopotential name for each species (Block)  
%block speciescond          : *! Species information for Conduction NGWFs (symb 
H     H   1  4  5.50                                                            
C     C   6  4  6.00                                                            
%endblock speciescond       : *! Species information for Conduction NGWFs (symb 
%block speciesatomicset     : *! Atomic set name for each species (Block)       
H    SOLVE                                                                      
C    SOLVE                                                                      
%endblock speciesatomicset  : *! Atomic set name for each species (Block)       
%block speciesldosgroups    : *! Species groups for Local density of states cal 
C                                                                               
H                                                                               
%endblock speciesldosgroups : *! Species groups for Local density of states cal 
-------------------------------------------------------------------------------
-------------------------------------------------------------------------------

WARNING in pseudopotentials_read_species: string "GGA" found in pseudopotential
file "../../pseudo/carbon.recpot", yet xc_functional = "LDA".
 
<<<<<<<<<<<<<<<<<<<<<<<<< Pseudopotential information >>>>>>>>>>>>>>>>>>>>>>>>>
File: ../../pseudo/carbon.recpot [ 2001 points up to Gmax=  52.9 (1/bohr)]
  Atomic number:  6;  ionic charge:  4.000000
    Shell 1: l = 0; rc = 1.48 bohr
File: ../../pseudo/hydrogen.recpot [ 2001 points up to Gmax=  52.9 (1/bohr)]
  Atomic number:  1;  ionic charge:  1.000000
    Local potential
<<<<<<<<<<<<<<<<<<<<<<<<<<<<<<<<<<<<<<< >>>>>>>>>>>>>>>>>>>>>>>>>>>>>>>>>>>>>>>

------------------------- Atom counting information ---------------------------
Symbol    Natoms    Nngwfs    Nprojs
  C          2         8         2
  H          4         4         0
.......   ......    ......    ......
Totals:      6        12         2
-------------------------------------------------------------------------------
 
Determining parallel strategy ...
... using space-filling curve
... NGWF load balancing: max      5;  min      1;  average      3
... Projector load balancing: max      1;  min      0;  average      1
... Conduction NGWF load balancing: max      8;  min      4;  average      6
... Joint NGWF load balancing: max     13;  min      5;  average      9
... done

Calculating Ewald energy ...
              Ewald: real-space energy =      16.026401
        Ewald: reciprocal-space energy =       0.702002
         Ewald: (sum_charge)**2 Energy =       0.990578
         Ewald: (sum_charge**2) Energy =       1.213206
                          Ewald Energy =      14.524619
... FFT-box specified

Basis initialisation ...
... Atom positions lie inside simulation cell
... NGWF spheres initialised
... Projector spheres initialised
... Conduction NGWF spheres initialised
... NGWF tight boxes initialised
... Conduction NGWF tight boxes initialised
... Joint NGWF tight boxes initialised
... NGWF basis size (local,global):       2636      7992
... Conduction NGWF basis size (local,global):       4388     15216
... Joint NGWF basis size (local,global):       6892     22680
... Tight-boxes gathered
... done

============================== PSINC grid sizes ================================
                      Simulation cell:   56 x  56 x  56
                              FFT-box:   55 x  55 x  55
                                  PPD:    7 x   7 x   7
Grid space d1=  0.714285714286a0 (KE cutoff=  14.88881Eh = 405.14521eV)
Grid space d2=  0.714285714286a0 (KE cutoff=  14.88881Eh = 405.14521eV)
Grid space d3=  0.714285714286a0 (KE cutoff=  14.88881Eh = 405.14521eV)
================================================================================

********************** Fourier parallelisation information *********************
       Coarse grid (whole simulation cell) dimensions:     56    56    56

                 Real-space grid ('12' slabs):
                   Node    0:   14 (from    1 to   14)
                   Node    1:   14 (from   15 to   28)
                   Node    2:   14 (from   29 to   42)
                   Node    3:   14 (from   43 to   56)

                 Reciprocal-space grid ('23' slabs):
                   Node    0:    7 (from    1 to    7)
                   Node    1:    7 (from    8 to   14)
                   Node    2:    8 (from   15 to   22)
                   Node    3:    7 (from   23 to   29)
********************************************************************************

********************** Fourier parallelisation information *********************
       Double grid (whole simulation cell) dimensions:    112   112   112

                 Real-space grid ('12' slabs):
                   Node    0:   28 (from    1 to   28)
                   Node    1:   28 (from   29 to   56)
                   Node    2:   28 (from   57 to   84)
                   Node    3:   28 (from   85 to  112)

                 Reciprocal-space grid ('23' slabs):
                   Node    0:   14 (from    1 to   14)
                   Node    1:   14 (from   15 to   28)
                   Node    2:   15 (from   29 to   43)
                   Node    3:   14 (from   44 to   57)
********************************************************************************

=========================== Sparse matrix information ==========================
                        Overlap matrix filling: 100.00%
                        Density kernel filling: 100.00%
              NGWF-Proj overlap matrix filling: 100.00%
                    Hamiltonian matrix filling: 100.00%
                  NGWF diagonal matrix filling:  25.00%
                             KS matrix filling: 100.00% 
                           KSKS matrix filling: 100.00% 
================================================================================

Sparse matrix initialisation ... done
  
Reading NGWFs from file "ethene_cond.tightbox_ngwfs" ...  done
============ Calculation of NGWF S^-1 using Hotelling algorithm ================ 
         Iteration  |  Frobenius norm and Maximum abs value    (of I-S*S_n^-1)   
               1       0.30213883E+01     0.96364874E+00
               2       0.28425925E+01     0.92933727E+00
               3       0.26853154E+01     0.86633570E+00
               4       0.25279683E+01     0.78004274E+00
               5       0.23652017E+01     0.67030026E+00
               6       0.22036765E+01     0.60034668E+00
               7       0.20104313E+01     0.55136970E+00
               8       0.17574653E+01     0.50000620E+00
               9       0.14738865E+01     0.48246218E+00
              10       0.11889577E+01     0.45549763E+00
              11       0.96023438E+00     0.41881427E+00
              12       0.81870636E+00     0.37047337E+00
              13       0.66486554E+00     0.30029034E+00
              14       0.44203100E+00     0.19956431E+00
              15       0.19539141E+00     0.88213430E-01
              16       0.38177803E-01     0.17236146E-01
              17       0.14575446E-02     0.65803820E-03
              18       0.21244363E-05     0.95912004E-06
              19       0.45141311E-11     0.20392577E-11
              20       0.51102104E-14     0.19984014E-14
================================================================================

Reading density kernel from file "ethene_cond.dkn" ... done

===================== Conduction Sparse matrix information =====================
                        Overlap matrix filling: 100.00%
                        Density kernel filling: 100.00%
              NGWF-Proj overlap matrix filling: 100.00%
                    Hamiltonian matrix filling: 100.00%
              NGWF-COND overlap matrix filling: 100.00%
        Proj. Cond. Hamiltonian matrix filling: 100.00% 
                  NGWF diagonal matrix filling:  16.67%
                             KS matrix filling: 100.00% 
                           KSKS matrix filling: 100.00% 
================================================================================

Conduction sparse matrix initialisation ... done
Conduction NGWF initialisation ...
Atom SCF Calculation for H  : Z (AE atom) =   1 : Z (PS atom) =   1
Orbitals (num,occ,l):  3     1.00 0.00 0.00      0  0  1
Real-space Grid (nr,dr,rmax):  585    0.0094178082    5.5000000000
Spherical Bessel Basis (nsws,lmax,cutoff):   23    1   88.1975861389
Confining potential (l,width,scale):  0    3.0000000000  100.0000000000
Confining potential (l,width,scale):  1    3.0000000000  100.0000000000
  1 7995.0102176627   -0.2000206008    0.2820963115   -0.2319354442
  2 3197.7531855609   -0.1769389422    0.3113526924   -0.2529685049
  3 1662.6316071850   -0.1689252992    0.3215150298   -0.2604909803
  4  864.3696014794   -0.1649319161    0.3266500839   -0.2643089846
  5  449.2740622062   -0.1629985720    0.3291565968   -0.2661778844
  6  233.4247432520   -0.1620750829    0.3303593966   -0.2670771762
  7  121.1832758222   -0.1616372606    0.3309312458   -0.2675060002
  8   62.8177993639   -0.1614307319    0.3312015440   -0.2677093660
  9   32.4677933043   -0.1613337057    0.3313287524   -0.2678054332
 10   16.6858101454   -0.1612883007    0.3313883873   -0.2678506624
 11    8.4791884641   -0.1612671405    0.3314162334   -0.2678718868
 12    4.2117497553   -0.1612573252    0.3314291792   -0.2678818113
 13    1.9926838040   -0.1612527972    0.3314351673   -0.2678864336
 14    0.8387705465   -0.1612507220    0.3314379206   -0.2678885763
 15    0.2387361461   -0.1612497784    0.3314391774   -0.2678895640
 16   -0.0732815075   -0.1612493537    0.3314397460   -0.2678900164
 17   -0.2355305760   -0.1612491648    0.3314400004   -0.2678902219
 18   -0.3199000388   -0.1612490822    0.3314401126   -0.2678903142
 19   -0.3637721345   -0.1612490469    0.3314401611   -0.2678903552
 20   -0.3865856125   -0.1612490322    0.3314401816   -0.2678903731
 21   -0.3984486154   -0.1612490264    0.3314401899   -0.2678903807
 22   -0.4046173744   -0.1612490243    0.3314401930   -0.2678903839
 23   -0.4078251278   -0.1612490236    0.3314401941   -0.2678903851
 24   -0.4094931590   -0.1612490235    0.3314401944   -0.2678903856
 25   -0.4103605349   -0.1612490236    0.3314401944   -0.2678903857
 26   -0.4108115703   -0.1612490236    0.3314401944   -0.2678903857
 27   -0.4110461087   -0.1612490237    0.3314401943   -0.2678903857
 28   -0.4111680686   -0.1612490237    0.3314401942   -0.2678903857
 29   -0.4112314877   -0.1612490238    0.3314401942   -0.2678903857
 30   -0.4112644657   -0.1612490238    0.3314401942   -0.2678903857
 31   -0.4112816142   -0.1612490238    0.3314401942   -0.2678903857
 32   -0.4112905314   -0.1612490238    0.3314401942   -0.2678903857
 33   -0.4112951684   -0.1612490238    0.3314401942   -0.2678903857
 34   -0.4112975796   -0.1612490238    0.3314401942   -0.2678903857
 35   -0.4112988334   -0.1612490238    0.3314401942   -0.2678903857
 36   -0.4112994854   -0.1612490238    0.3314401942   -0.2678903857
 37   -0.4112998245   -0.1612490238    0.3314401942   -0.2678903857
 38   -0.4113000008   -0.1612490238    0.3314401942   -0.2678903857
 39   -0.4113000924   -0.1612490238    0.3314401942   -0.2678903857
Atom SCF converged after  39 iterations to a total energy of     -0.41130009
 
WARNING in ngwfs_initialise: Setting radial NGWF functions for species  1 (H):
Last NGWF on atom has m =  0 and does not complete set of m-values for l = 1.
This breaks symmetry and may cause unstable NGWF optimisation and poor 
convergence. Suggest increasing number of NGWFs per atom from   4 to   5.
NB: All NGWF radial function angular momenta:     0    0    1
 

Atom SCF Calculation for C  : Z (AE atom) =   6 : Z (PS atom) =   4
Orbitals (num,occ,l):  2     2.00 2.00      0  1
Real-space Grid (nr,dr,rmax):  637    0.0094339623    6.0000000000
Spherical Bessel Basis (nsws,lmax,cutoff):   25    1   88.1975861389
Confining potential (l,width,scale):  0    3.0000000000  100.0000000000
Confining potential (l,width,scale):  1    3.0000000000  100.0000000000
  1 2145.9860568468   -1.2260674427    4.5135338903   -1.4140640077
  2  855.0671858040   -1.1227367933    4.6240700346   -1.4444001355
  3  442.0764310673   -1.1186559485    4.6287746562   -1.4458076874
  4  227.3299000557   -1.1190205360    4.6284871740   -1.4458401540
  5  115.6641488001   -1.1199237340    4.6275490757   -1.4456551831
  6   57.5986545326   -1.1206019294    4.6268304840   -1.4454999050
  7   27.4048011661   -1.1210183235    4.6263866386   -1.4454015417
  8   11.7040586363   -1.1212553508    4.6261332676   -1.4453446988
  9    3.5396916247   -1.1213855305    4.6259935378   -1.4453127343
 10   -0.7057711243   -1.1214564633    4.6259175423   -1.4452954864
 11   -2.9134091956   -1.1214945461    4.6258767234   -1.4452861968
 12   -4.0613798568   -1.1215149230    4.6258548759   -1.4452812129
 13   -4.6583240584   -1.1215258068    4.6258432038   -1.4452785444
 14   -4.9687347718   -1.1215316149    4.6258369739   -1.4452771171
 15   -5.1301482032   -1.1215347128    4.6258336504   -1.4452763542
 16   -5.2140831144   -1.1215363647    4.6258318778   -1.4452759465
 17   -5.2577292297   -1.1215372455    4.6258309326   -1.4452757286
 18   -5.2804251893   -1.1215377151    4.6258304286   -1.4452756123
 19   -5.2922270775   -1.1215379654    4.6258301599   -1.4452755501
 20   -5.2983640535   -1.1215380988    4.6258300166   -1.4452755169
 21   -5.3015552780   -1.1215381700    4.6258299402   -1.4452754991
 22   -5.3032147131   -1.1215382079    4.6258298995   -1.4452754897
 23   -5.3040776185   -1.1215382281    4.6258298778   -1.4452754846
 24   -5.3045263288   -1.1215382389    4.6258298662   -1.4452754819
 25   -5.3047596580   -1.1215382446    4.6258298600   -1.4452754805
 26   -5.3048809890   -1.1215382477    4.6258298567   -1.4452754797
 27   -5.3049440810   -1.1215382493    4.6258298550   -1.4452754793
 28   -5.3049768889   -1.1215382502    4.6258298540   -1.4452754791
 29   -5.3049939489   -1.1215382506    4.6258298535   -1.4452754790
 30   -5.3050028201   -1.1215382509    4.6258298533   -1.4452754789
 31   -5.3050074332   -1.1215382510    4.6258298531   -1.4452754789
 32   -5.3050098319   -1.1215382511    4.6258298531   -1.4452754788
 33   -5.3050110793   -1.1215382511    4.6258298530   -1.4452754788
 34   -5.3050117279   -1.1215382511    4.6258298530   -1.4452754788
 35   -5.3050120652   -1.1215382512    4.6258298530   -1.4452754788
 36   -5.3050122406   -1.1215382512    4.6258298530   -1.4452754788
 37   -5.3050123318   -1.1215382512    4.6258298530   -1.4452754788
Atom SCF converged after  37 iterations to a total energy of     -5.30501233
... done

 done
+------------------------------------------------------------------------------+
|                   Starting conduction NGWF optimisation                      |
+------------------------------------------------------------------------------+

Starting conduction NGWF pre-optimisation process

============ Calculation of NGWF S^-1 using Hotelling algorithm ================ 
         Iteration  |  Frobenius norm and Maximum abs value    (of I-S*S_n^-1)   
               1       0.46765558E+01     0.96250255E+00
               2       0.45043923E+01     0.92939175E+00
               3       0.42494253E+01     0.87251585E+00
               4       0.39144277E+01     0.78134934E+00
               5       0.35163192E+01     0.68749618E+00
               6       0.30929688E+01     0.67322475E+00
               7       0.27129524E+01     0.65825612E+00
               8       0.24256240E+01     0.64120593E+00
               9       0.21724654E+01     0.62082166E+00
              10       0.19095240E+01     0.58806471E+00
              11       0.16176338E+01     0.53220470E+00
              12       0.12608318E+01     0.44548736E+00
              13       0.84916851E+00     0.32553966E+00
              14       0.44597178E+00     0.18136477E+00
              15       0.13992435E+00     0.57462645E-01
              16       0.14867400E-01     0.59380441E-02
              17       0.18913460E-03     0.69436854E-04
              18       0.34554300E-07     0.11567002E-07
              19       0.69110142E-14     0.22204460E-14
================================================================================
Generating conduction density kernel for     5 'occupied' orbitals
Up spin density kernel initialisation ... 
Conduction Hamiltonian max eigenvalue:    1.09026901180956    1.00000000000000
Conduction shift updated:        1.19026901180956
 
======= Optimisation of K by Palser-Manolopoulos canonical purification ======== 
         Iteration  |  Band structure energy |    c_n   
               1           2.02869837317130    0.3119972
               2           1.89538888448807    0.3272979
               3           1.74207793495041    0.3467639
               4           1.57109419313550    0.3687058
               5           1.39199750286111    0.3879513
               6           1.22451769226862    0.3988459
               7           1.08990871916043    0.3966020
               8           0.99660954210088    0.3594696
               9           0.94868222666373    0.3070304
              10           0.93130478503556    0.3246589
              11           0.92072774829387    0.3803986
              12           0.91136295282951    0.4401070
              13           0.90414688825091    0.4838629
              14           0.89952911964635    0.4987953
              15           0.89708132569490    0.4999933
              16           0.89640603354683    0.5000000
              17           0.89636606467332    0.5000000
              18           0.89636593704743    0.4999290
              19           0.89636593704613   -0.1197930
Final occupancy bounds: [    0.00000000000000:    1.00000000000000]
Closest occupancy to 0.5:     1.00000000000000
================================================================================
... done

Writing density kernel to file "ethene_cond.dkn_cond" ... done

################################################################################
######################### COND NGWF CG iteration  001 ##########################
################################################################################
****** Reciprocal space K.E. preconditioning with k_zero =  3.0000 a0^-1 *******
Conduction Hamiltonian max eigenvalue:    1.09026902235716    1.00000000000000
Conduction shift updated:        1.19026902235716
   Initial electron number for spin 1:      10.00000000
     Final electron number for spin 1:      10.00000000

=================== Penalty functional idempotency correction ==================
 RMS occupancy error at iteration   1:  0.000000 (step -0.5000 Ne1=     10.0000)
            Final RMS occupancy error   :  0.000000 (Ne1=     10.0000)
               Final occupancy bounds   : [  0.0000,  1.0000]
================================================================================

................................................................................
<<<<<<<<<<<<<< LNV (Original version) density kernel optimisation >>>>>>>>>>>>>>
~~~~~~~~~~~~~~~~~~~~~~~~~~~~~~~~~~~~~~~~~~~~~~~~~~~~~~~~~~~~~~~~~~~~~~~~~~~~~~~~
iter|       energy      |  rms DeltaK |  commutator |LScoef|CGcoef|      Ne    |
      ideal mu1:       0.179273187409
 1      1.79273187409410 0.00000000000 0.00000000003

                 ..............................................
                 | RMS LNV GRADIENT=    0.00000000001156      |
                 | LNV density kernel optimisation converged! |
                 ~~~~~~~~~~~~~~~~~~~~~~~~~~~~~~~~~~~~~~~~~~~~~~

Writing density kernel to file "ethene_cond.dkn_cond" ... done

           ........................................................
           | *** NGWF optimisation not converged ***              |
           | RMS NGWF gradient =    0.00713589033166              |
           | Criteria not satisfied:                              |
           | -> RMS NGWF gradient higher than set threshold.      |
           ========================================================

------------------------------- NGWF line search -------------------------------
============ Calculation of NGWF S^-1 using Hotelling algorithm ================ 
         Iteration  |  Frobenius norm and Maximum abs value    (of I-S*S_n^-1)   
               1       0.33224669E-01     0.75221251E-02
               2       0.33883933E-03     0.84563125E-04
               3       0.44430832E-07     0.11773403E-07
               4       0.59567366E-14     0.13322676E-14
================================================================================
Conduction Hamiltonian max eigenvalue:    1.05444234075076    1.19026902235716
============ Calculation of NGWF S^-1 using Hotelling algorithm ================ 
         Iteration  |  Frobenius norm and Maximum abs value    (of I-S*S_n^-1)   
               1       0.89416316E-01     0.17599813E-01
               2       0.26707421E-02     0.54342700E-03
               3       0.26076336E-05     0.53384768E-06
               4       0.26206938E-11     0.54356519E-12
================================================================================
RMS gradient                =       0.00713589033166
Trial step length           =               0.122474
Gradient along search dir.  =         -2.56941924853
Functional at step 0        =       1.79273187409410
Functional at step 1        =       1.53344614121039
Functional predicted        =       1.34587207201984
Selected quadratic step     =               0.347829
Conjugate gradients coeff.  =               0.000000
--------------------------- NGWF line search finished --------------------------
                                               
Writing Conduction NGWFs to file "ethene_cond.tightbox_ngwfs_cond"....  done

################################################################################
######################### COND NGWF CG iteration  002 ##########################
################################################################################
****** Reciprocal space K.E. preconditioning with k_zero =  3.0000 a0^-1 *******
Conduction Hamiltonian max eigenvalue:    0.99634613277745    1.19026902235716
   Initial electron number for spin 1:      10.24744751
     Final electron number for spin 1:      10.00000000

=================== Penalty functional idempotency correction ==================
 RMS occupancy error at iteration   1:  0.011767 (step -0.4630 Ne1=     10.0000)
 RMS occupancy error at iteration   2:  0.000249 (step -0.4998 Ne1=     10.0000)
 RMS occupancy error at iteration   3:  0.000000 (step -0.5000 Ne1=     10.0000)
            Final RMS occupancy error   :  0.000000 (Ne1=     10.0000)
               Final occupancy bounds   : [  0.0000,  1.0000]
================================================================================

................................................................................
<<<<<<<<<<<<<< LNV (Original version) density kernel optimisation >>>>>>>>>>>>>>
~~~~~~~~~~~~~~~~~~~~~~~~~~~~~~~~~~~~~~~~~~~~~~~~~~~~~~~~~~~~~~~~~~~~~~~~~~~~~~~~
iter|       energy      |  rms DeltaK |  commutator |LScoef|CGcoef|      Ne    |
      ideal mu1:       0.134731419721
             Q0:       1.347314197206
             G0:      -0.052283956795
   RMS gradient:       0.009527368909
     Trial step:       0.500000000000
             Q1:       1.328070568122
 Quadratic coef:       0.006898349313
 Linear coef   :      -0.026141978397
           Qmin:       1.322547292708
Quadratic minimum step length (  0.947399776764) accepted
    Initial Ne1:      10.00000000
      Final Ne1:      10.00000000

=================== Penalty functional idempotency correction ==================
 RMS occupancy error at iteration   1:  0.003461 (step -0.4907 Ne1=     10.0000)
 RMS occupancy error at iteration   2:  0.000009 (step -0.5000 Ne1=     10.0000)
            Final RMS occupancy error   :  0.000000 (Ne1=     10.0000)
               Final occupancy bounds   : [  0.0000,  1.0000]
================================================================================

 1      1.34731419720600 0.00000000000 0.01660640876 0.9474  0.000   10.00000000
      ideal mu1:       0.132237797776
             Q0:       1.322377977760
             G0:      -0.007542496729
   RMS gradient:       0.003595583269
     Trial step:       0.688258591216
             Q1:       1.319138072502
 Quadratic coef:       0.001951282916
 Linear coef   :      -0.005191188173
           Qmin:       1.318925321762
Quadratic minimum step length (  0.915520714624) accepted
    Initial Ne1:       9.99999997
      Final Ne1:      10.00000000

=================== Penalty functional idempotency correction ==================
 RMS occupancy error at iteration   1:  0.001468 (step -0.4955 Ne1=     10.0000)
 RMS occupancy error at iteration   2:  0.000004 (step -0.5000 Ne1=     10.0000)
            Final RMS occupancy error   :  0.000000 (Ne1=     10.0000)
               Final occupancy bounds   : [  0.0000,  1.0000]
================================================================================

 2      1.32237797775951 0.03353888014 0.00829203199 0.9155  0.142   10.00000000
      ideal mu1:       0.131887063249
 3      1.31887063248580 0.01485751594 0.00412051173 0.0000  0.000   10.00000000
Finished density kernel iterations (   3)

Writing density kernel to file "ethene_cond.dkn_cond" ... done

           ........................................................
           | *** NGWF optimisation not converged ***              |
           | RMS NGWF gradient =    0.00379826494061              |
           | Criteria not satisfied:                              |
           | -> RMS NGWF gradient higher than set threshold.      |
           ========================================================

------------------------------- NGWF line search -------------------------------
============ Calculation of NGWF S^-1 using Hotelling algorithm ================ 
         Iteration  |  Frobenius norm and Maximum abs value    (of I-S*S_n^-1)   
               1       0.61698492E-01     0.12725115E-01
               2       0.11837920E-02     0.25528568E-03
               3       0.58850455E-06     0.10970868E-06
               4       0.19365624E-12     0.29087843E-13
================================================================================
Conduction Hamiltonian max eigenvalue:    0.94232344006095    1.19026902235716
============ Calculation of NGWF S^-1 using Hotelling algorithm ================ 
         Iteration  |  Frobenius norm and Maximum abs value    (of I-S*S_n^-1)   
               1       0.20836810E+00     0.39266099E-01
               2       0.14905559E-01     0.25978644E-02
               3       0.10189358E-03     0.17145788E-04
               4       0.69449985E-08     0.10737078E-08
               5       0.67787992E-14     0.35527137E-14
================================================================================
RMS gradient                =       0.00379826494061
Trial step length           =               0.206398
Gradient along search dir.  =         -0.76475080116
Functional at step 0        =       1.31887063248580
Functional at step 1        =       1.18468570229502
Functional predicted        =       1.05559623785099
Selected quadratic step     =               0.688523
Conjugate gradients coeff.  =               0.283318
--------------------------- NGWF line search finished --------------------------
                                               
Writing Conduction NGWFs to file "ethene_cond.tightbox_ngwfs_cond"....  done
WARNING: maximum number of NGWF CG iterations (   2) exceeded!

                    <<<<< CALCULATION SUMMARY >>>>>
|ITER|    RMS GRADIENT   |     TOTAL ENERGY    |   step   |     Epredicted      
   1     0.00713589033166      1.79273187409410   0.347829      1.34587207201984
   2     0.00379826494061      1.31887063248580  <-- CG                         
 
<QC>        [NGWF iterations]:        2
<QC>           [total_energy]:        1.31887063
<QC>                     [F0]:        1.31887063
<QC>                     [F1]:        1.18468570
<QC>                     [F2]:        0.00000000
<QC>   [predicted_functional]:        1.05559624
<QC>           [rms_gradient]:        0.003798264941
<QC>                 [G_init]:       -0.764750801164
<QC>        [quadratic_coeff]:        0.688523
<QC>            [cubic_coeff]:        0.000000
<QC>               [cg_coeff]:        0.283318
<QC>           [trial_length]:        0.206398

Conduction NGWF pre-optimisation process complete.
Proceeding with the main conduction NGWF optimisation process.

============ Calculation of NGWF S^-1 using Hotelling algorithm ================ 
         Iteration  |  Frobenius norm and Maximum abs value    (of I-S*S_n^-1)   
               1       0.67787992E-14     0.35527137E-14
================================================================================
Generating conduction density kernel for     3 'occupied' orbitals
Up spin density kernel initialisation ... 
Conduction Hamiltonian max eigenvalue:    0.85038740527250    1.00000000000000
 
======= Optimisation of K by Palser-Manolopoulos canonical purification ======== 
         Iteration  |  Band structure energy |    c_n   
               1           0.92101718847704    0.1895550
               2           0.87953916816513    0.1963380
               3           0.83332832505846    0.2049117
               4           0.78156512622978    0.2158962
               5           0.72327051586965    0.2301374
               6           0.65736617128802    0.2487146
               7           0.58293707259423    0.2727485
               8           0.49999963067937    0.3026410
               9           0.41129331713276    0.3365148
              10           0.32505542106466    0.3711194
              11           0.25451978143181    0.4156171
              12           0.20650564617284    0.4908106
              13           0.17793984858921    0.5710175
              14           0.17168564221987    0.5629168
              15           0.16926889647053    0.5263417
              16           0.16738946644037    0.5043228
              17           0.16572313923527    0.5001132
              18           0.16418382074004    0.5000001
              19           0.16324768412540    0.5000000
              20           0.16302395469011    0.5000000
              21           0.16301431431863    0.5000000
              22           0.16301429763602    0.5012037
              23           0.16301429763597    1.0111431
Final occupancy bounds: [    0.00000000000000:    0.99999999999999]
Closest occupancy to 0.5:     1.00000000000000
================================================================================
... done

Writing density kernel to file "ethene_cond.dkn_cond" ... done

################################################################################
######################### COND NGWF CG iteration  001 ##########################
################################################################################
****** Reciprocal space K.E. preconditioning with k_zero =  3.0000 a0^-1 *******
Conduction Hamiltonian max eigenvalue:    0.85038725634973    1.00000000000000
   Initial electron number for spin 1:       6.00000000
     Final electron number for spin 1:       6.00000000

=================== Penalty functional idempotency correction ==================
 RMS occupancy error at iteration   1:  0.000000 (step -0.5000 Ne1=      6.0000)
            Final RMS occupancy error   :  0.000000 (Ne1=      6.0000)
               Final occupancy bounds   : [  0.0000,  1.0000]
================================================================================

................................................................................
<<<<<<<<<<<<<< LNV (Original version) density kernel optimisation >>>>>>>>>>>>>>
~~~~~~~~~~~~~~~~~~~~~~~~~~~~~~~~~~~~~~~~~~~~~~~~~~~~~~~~~~~~~~~~~~~~~~~~~~~~~~~~
iter|       energy      |  rms DeltaK |  commutator |LScoef|CGcoef|      Ne    |
      ideal mu1:       0.054338099212
 1      0.32602859527194 0.00000000000 0.00000000000

                 ..............................................
                 | RMS LNV GRADIENT=    0.00000000000000      |
                 | LNV density kernel optimisation converged! |
                 ~~~~~~~~~~~~~~~~~~~~~~~~~~~~~~~~~~~~~~~~~~~~~~

Writing density kernel to file "ethene_cond.dkn_cond" ... done

           ........................................................
           | *** NGWF optimisation not converged ***              |
           | RMS NGWF gradient =    0.00245976621628              |
           | Criteria not satisfied:                              |
           | -> RMS NGWF gradient higher than set threshold.      |
           ========================================================

------------------------------- NGWF line search -------------------------------
============ Calculation of NGWF S^-1 using Hotelling algorithm ================ 
         Iteration  |  Frobenius norm and Maximum abs value    (of I-S*S_n^-1)   
               1       0.16684966E-01     0.25327092E-02
               2       0.80643352E-04     0.12927493E-04
               3       0.24839331E-08     0.39349901E-09
               4       0.65978479E-14     0.24424907E-14
================================================================================
Conduction Hamiltonian max eigenvalue:    0.83710242197272    1.00000000000000
============ Calculation of NGWF S^-1 using Hotelling algorithm ================ 
         Iteration  |  Frobenius norm and Maximum abs value    (of I-S*S_n^-1)   
               1       0.31229838E-01     0.49643301E-02
               2       0.31729558E-03     0.52825628E-04
               3       0.39276046E-07     0.63577947E-08
               4       0.85111993E-14     0.53290705E-14
================================================================================
RMS gradient                =       0.00245976621628
Trial step length           =               0.122474
Gradient along search dir.  =         -0.30529964841
Functional at step 0        =       0.32602859527194
Functional at step 1        =       0.29559722727789
Functional predicted        =       0.27580919468873
Selected quadratic step     =               0.328984
Conjugate gradients coeff.  =               0.000000
--------------------------- NGWF line search finished --------------------------
                                               
Writing Conduction NGWFs to file "ethene_cond.tightbox_ngwfs_cond"....  done

################################################################################
######################### COND NGWF CG iteration  002 ##########################
################################################################################
****** Reciprocal space K.E. preconditioning with k_zero =  3.0000 a0^-1 *******
Conduction Hamiltonian max eigenvalue:    0.81608266562961    1.00000000000000
   Initial electron number for spin 1:       6.01387417
     Final electron number for spin 1:       6.00000000

=================== Penalty functional idempotency correction ==================
 RMS occupancy error at iteration   1:  0.001508 (step -0.4899 Ne1=      6.0000)
 RMS occupancy error at iteration   2:  0.000003 (step -0.5000 Ne1=      6.0000)
            Final RMS occupancy error   :  0.000000 (Ne1=      6.0000)
               Final occupancy bounds   : [  0.0000,  1.0000]
================================================================================

................................................................................
<<<<<<<<<<<<<< LNV (Original version) density kernel optimisation >>>>>>>>>>>>>>
~~~~~~~~~~~~~~~~~~~~~~~~~~~~~~~~~~~~~~~~~~~~~~~~~~~~~~~~~~~~~~~~~~~~~~~~~~~~~~~~
iter|       energy      |  rms DeltaK |  commutator |LScoef|CGcoef|      Ne    |
      ideal mu1:       0.045980714490
             Q0:       0.275884286937
             G0:      -0.001272987192
   RMS gradient:       0.001486622752
     Trial step:       0.793797831488
             Q1:       0.275228850458
 Quadratic coef:       0.000355057993
 Linear coef   :      -0.001010494472
           Qmin:       0.275165320531
Quadratic minimum step length (  1.129573669491) accepted
    Initial Ne1:       5.99999999
      Final Ne1:       6.00000000

=================== Penalty functional idempotency correction ==================
 RMS occupancy error at iteration   1:  0.000159 (step -0.4994 Ne1=      6.0000)
            Final RMS occupancy error   :  0.000000 (Ne1=      6.0000)
               Final occupancy bounds   : [  0.0000,  1.0000]
================================================================================

 1      0.27588428693744 0.00000000000 0.00273076354 1.1296  0.000    6.00000000
      ideal mu1:       0.045860806203
             Q0:       0.275164837218
             G0:      -0.000158067816
   RMS gradient:       0.000523581096
     Trial step:       0.946917699353
             Q1:       0.275085887627
 Quadratic coef:       0.000070727622
 Linear coef   :      -0.000149677212
           Qmin:       0.275085648680
Quadratic minimum step length (  1.001956505773) accepted
    Initial Ne1:       6.00000027
      Final Ne1:       6.00000000

=================== Penalty functional idempotency correction ==================
 RMS occupancy error at iteration   1:  0.000050 (step -0.4998 Ne1=      6.0000)
            Final RMS occupancy error   :  0.000000 (Ne1=      6.0000)
               Final occupancy bounds   : [  0.0000,  1.0000]
================================================================================

 2      0.27516483721774 0.00582419653 0.00146750966 1.0020  0.124    6.00000000
      ideal mu1:       0.045847599230
 3      0.27508559537847 0.00096210061 0.00087620193 0.0000  0.000    6.00000000
Finished density kernel iterations (   3)

Writing density kernel to file "ethene_cond.dkn_cond" ... done

           ........................................................
           | *** NGWF optimisation not converged ***              |
           | RMS NGWF gradient =    0.00119429559374              |
           | Criteria not satisfied:                              |
           | -> RMS NGWF gradient higher than set threshold.      |
           ========================================================

------------------------------- NGWF line search -------------------------------
============ Calculation of NGWF S^-1 using Hotelling algorithm ================ 
         Iteration  |  Frobenius norm and Maximum abs value    (of I-S*S_n^-1)   
               1       0.34995390E-01     0.48597901E-02
               2       0.37573275E-03     0.52846312E-04
               3       0.52366978E-07     0.66869994E-08
               4       0.69248109E-14     0.17763568E-14
================================================================================
Conduction Hamiltonian max eigenvalue:    0.79356291069010    1.00000000000000
============ Calculation of NGWF S^-1 using Hotelling algorithm ================ 
         Iteration  |  Frobenius norm and Maximum abs value    (of I-S*S_n^-1)   
               1       0.54396494E-01     0.82807278E-02
               2       0.97047729E-03     0.14722430E-03
               3       0.35014055E-06     0.48682615E-07
               4       0.46680619E-13     0.75495166E-14
================================================================================
RMS gradient                =       0.00119429559374
Trial step length           =               0.200729
Gradient along search dir.  =         -0.07278709862
Functional at step 0        =       0.27508559537847
Functional at step 1        =       0.26361725184905
Functional predicted        =       0.25810147677854
Selected quadratic step     =               0.466679
Conjugate gradients coeff.  =               0.235741
--------------------------- NGWF line search finished --------------------------
                                               
Writing Conduction NGWFs to file "ethene_cond.tightbox_ngwfs_cond"....  done

################################################################################
######################### COND NGWF CG iteration  003 ##########################
################################################################################
****** Reciprocal space K.E. preconditioning with k_zero =  3.0000 a0^-1 *******
Conduction Hamiltonian max eigenvalue:    0.77572024871410    1.00000000000000
   Initial electron number for spin 1:       6.00930055
     Final electron number for spin 1:       6.00000000

=================== Penalty functional idempotency correction ==================
 RMS occupancy error at iteration   1:  0.001610 (step -0.4912 Ne1=      6.0000)
 RMS occupancy error at iteration   2:  0.000014 (step -0.5001 Ne1=      6.0000)
            Final RMS occupancy error   :  0.000000 (Ne1=      6.0000)
               Final occupancy bounds   : [  0.0000,  1.0000]
================================================================================

................................................................................
<<<<<<<<<<<<<< LNV (Original version) density kernel optimisation >>>>>>>>>>>>>>
~~~~~~~~~~~~~~~~~~~~~~~~~~~~~~~~~~~~~~~~~~~~~~~~~~~~~~~~~~~~~~~~~~~~~~~~~~~~~~~~
iter|       energy      |  rms DeltaK |  commutator |LScoef|CGcoef|      Ne    |
      ideal mu1:       0.043020535184
             Q0:       0.258123211103
             G0:      -0.001921220872
   RMS gradient:       0.001826322234
     Trial step:       0.974048432727
             Q1:       0.257033727326
 Quadratic coef:       0.000781878403
 Linear coef   :      -0.001871362180
           Qmin:       0.257003472920
Quadratic minimum step length (  1.165652735450) accepted
    Initial Ne1:       6.00000003
      Final Ne1:       6.00000000

=================== Penalty functional idempotency correction ==================
 RMS occupancy error at iteration   1:  0.000257 (step -0.4989 Ne1=      6.0000)
 RMS occupancy error at iteration   2:  0.000000 (step -0.5000 Ne1=      6.0000)
            Final RMS occupancy error   :  0.000000 (Ne1=      6.0000)
               Final occupancy bounds   : [  0.0000,  1.0000]
================================================================================

 1      0.25812321110270 0.00000000000 0.00430741739 1.1657  0.000    6.00000000
      ideal mu1:       0.042833624441
             Q0:       0.257001746646
             G0:      -0.000315142078
   RMS gradient:       0.000738869069
     Trial step:       1.065552542144
             Q1:       0.256884142637
 Quadratic coef:       0.000218196433
 Linear coef   :      -0.000335800442
           Qmin:       0.256872548915
Quadratic minimum step length (  0.819933235254) accepted
    Initial Ne1:       6.00000000
      Final Ne1:       6.00000000

=================== Penalty functional idempotency correction ==================
 RMS occupancy error at iteration   1:  0.000076 (step -0.4997 Ne1=      6.0000)
            Final RMS occupancy error   :  0.000000 (Ne1=      6.0000)
               Final occupancy bounds   : [  0.0000,  1.0000]
================================================================================

 2      0.25700174664635 0.00452720311 0.00254644676 0.8199  0.164    6.00000000
      ideal mu1:       0.042812067282
 3      0.25687240369270 0.00129312192 0.00090325040 0.0000  0.000    6.00000000
Finished density kernel iterations (   3)

Writing density kernel to file "ethene_cond.dkn_cond" ... done

           ........................................................
           | *** NGWF optimisation converged ***                  |
           | RMS NGWF gradient =    0.00097022558560              |
           | Criteria satisfied:                                  |
           | -> RMS NGWF gradient lower than set threshold.       |
           ========================================================

                    <<<<< CALCULATION SUMMARY >>>>>
|ITER|    RMS GRADIENT   |     TOTAL ENERGY    |   step   |     Epredicted      
   1     0.00245976621628      0.32602859527194   0.328984      0.27580919468873
   2     0.00119429559374      0.27508559537847   0.466679      0.25810147677854
   3     0.00097022558560      0.25687240369270  <-- CG                         
 
<QC>        [NGWF iterations]:        3
<QC>           [total_energy]:        0.25687240
<QC>                     [F0]:        0.27508560
<QC>                     [F1]:        0.26361725
<QC>                     [F2]:        0.00000000
<QC>   [predicted_functional]:        0.25810148
<QC>           [rms_gradient]:        0.000970225586
<QC>                 [G_init]:       -0.072787098619
<QC>        [quadratic_coeff]:        0.466679
<QC>            [cubic_coeff]:        0.000000
<QC>               [cg_coeff]:        0.235741
<QC>           [trial_length]:        0.200729
+------------------------------------------------------------------------------+
|                   Conduction NGWF optimisation complete                      |
+------------------------------------------------------------------------------+
+------------------------------------------------------------------------------+
|               Starting conduction properties calculation                     |
+------------------------------------------------------------------------------+



=========================== Valence diagonalisation ============================

================== Local Density of States (LDOS) calculation ==================
Writing "ethene_cond_valence_LDOS.txt" ...  done
================================================================================

================ Writing optical matrix elements ================
Writing "ethene_cond_val_OPT_MAT_ELS.txt" ...  done
================================================================================
 
===================== Density of States (DOS) calculation ======================
Writing "ethene_cond_valence_DOS.txt" ...  done
================================================================================
 
Writing bands to file "ethene_cond.val_bands" ... done

=================== Orbital energy and occupancy information ===================

      Total number of orbitals:      12
   Number of occupied orbitals:       6
                 Occupancy sum:       6.000000000
                 HOMO-LUMO gap:       0.245184015 Eh
                 Mid-gap level:      -0.128408798 Eh

                        Orbital | Energy (Eh) | Occupancy
                            1    -0.709172363   1.0000000
                            2    -0.521021382   1.0000000
                            3    -0.420445523   1.0000000
                            4    -0.378436992   1.0000000
                            5    -0.301724918   1.0000000
                            6    -0.251000805   1.0000000
                        .......   --- gap ---   .........
                            7    -0.005816790   0.0000000
                            8     0.131570239   0.0000000
                            9     0.132123900   0.0000000
                           10     0.171212559   0.0000000
                           11     0.314556538   0.0000000
                           12     0.423189975   0.0000000
 
<QC>     [energy_eigenvalue_1]:     -0.709172362575
<QC>     [energy_eigenvalue_n]:      0.423189974620
<QC>  [occupancy_eigenvalue_1]:      1.000000
<QC>  [occupancy_eigenvalue_n]:      0.000000

================================================================================



=================== Unprojected conduction diagonalisation =====================

================== Local Density of States (LDOS) calculation ==================
Writing "ethene_cond_cond_LDOS.txt" ...  done
================================================================================
 
===================== Density of States (DOS) calculation ======================
Writing "ethene_cond_cond_DOS.txt" ...  done
================================================================================
 
Writing bands to file "ethene_cond.cond_bands" ... done

=================== Orbital energy and occupancy information ===================

      Total number of orbitals:      24
   Number of occupied orbitals:       3
                 Occupancy sum:       3.000000000
                 HOMO-LUMO gap:       0.046864567 Eh
                 Mid-gap level:      -0.380958339 Eh

                        Orbital | Energy (Eh) | Occupancy
                            1    -0.694188116   1.0000000
                            2    -0.507831772   1.0000000
                            3    -0.404390623   1.0000000
                        .......   --- gap ---   .........
                            4    -0.357526055   0.0000000
                            5    -0.288587638   0.0000000
                            6    -0.228676830   0.0000000
                            7    -0.026494156   0.0000000
                            8     0.062451522   0.0000000
                            9     0.092588460   0.0000000
                           10     0.113017665   0.0000000
                           11     0.205238352   0.0000000
                           12     0.276971748   0.0000000
                           13     0.290677071   0.0000000
                        .......   ...........   .........
                           24     0.775720549   0.0000000
 
<QC>     [energy_eigenvalue_1]:     -0.694188115942
<QC>     [energy_eigenvalue_n]:      0.775720549373
<QC>  [occupancy_eigenvalue_1]:      1.000000
<QC>  [occupancy_eigenvalue_n]:      0.000000

================================================================================



==================== Projected conduction diagonalisation ======================

================== Local Density of States (LDOS) calculation ==================
Writing "ethene_cond_proj_LDOS.txt" ...  done
================================================================================
 
===================== Density of States (DOS) calculation ======================
Writing "ethene_cond_proj_DOS.txt" ...  done
================================================================================
 
Writing bands to file "ethene_cond.proj_bands" ... done

=================== Orbital energy and occupancy information ===================

      Total number of orbitals:      24
   Number of occupied orbitals:       3
                 Occupancy sum:       3.000000000
                 HOMO-LUMO gap:       0.020276664 Eh
                 Mid-gap level:       0.102615283 Eh

                        Orbital | Energy (Eh) | Occupancy
                            1    -0.026494169   1.0000000
                            2     0.062429344   1.0000000
                            3     0.092476951   1.0000000
                        .......   --- gap ---   .........
                            4     0.112753615   0.0000000
                            5     0.205147576   0.0000000
                            6     0.276969164   0.0000000
                            7     0.290293387   0.0000000
                            8     0.315958744   0.0000000
                            9     0.327213484   0.0000000
                           10     0.329661310   0.0000000
                           11     0.375870440   0.0000000
                           12     0.460609625   0.0000000
                           13     0.493220101   0.0000000
                        .......   ...........   .........
                           24     1.002561759   0.0000000
 
<QC>     [energy_eigenvalue_1]:     -0.026494169039
<QC>     [energy_eigenvalue_n]:      1.002561758627
<QC>  [occupancy_eigenvalue_1]:      1.000000
<QC>  [occupancy_eigenvalue_n]:      0.000000

================================================================================

============== Joint Valence + Conduction Sparse matrix information ============
                        Overlap matrix filling: 100.00%
                        Density kernel filling: 100.00%
              NGWF-Proj overlap matrix filling: 100.00%
                    Hamiltonian matrix filling: 100.00%
                  NGWF diagonal matrix filling:  17.59%
                             KS matrix filling: 100.00% 
                           KSKS matrix filling: 100.00% 
================================================================================

Joint Valence + Conduction sparse matrix initialisation ... done
Joint Valence + Conduction NGWF initialisation ...... done

============ Calculation of NGWF S^-1 using Hotelling algorithm ================ 
         Iteration  |  Frobenius norm and Maximum abs value    (of I-S*S_n^-1)   
               1       0.58406254E+01     0.98978925E+00
               2       0.57190711E+01     0.98037876E+00
               3       0.55452540E+01     0.96575649E+00
               4       0.53312663E+01     0.94639756E+00
               5       0.50883709E+01     0.92466867E+00
               6       0.48237827E+01     0.90492696E+00
               7       0.45582732E+01     0.89229221E+00
               8       0.43337159E+01     0.88482179E+00
               9       0.41674741E+01     0.87879247E+00
              10       0.40217201E+01     0.87324871E+00
              11       0.38759314E+01     0.86558785E+00
              12       0.37285294E+01     0.85512464E+00
              13       0.35890825E+01     0.84417608E+00
              14       0.34904922E+01     0.83514602E+00
              15       0.34433467E+01     0.82746760E+00
              16       0.34143303E+01     0.82082698E+00
              17       0.33671977E+01     0.81255066E+00
              18       0.32807736E+01     0.79743712E+00
              19       0.31347283E+01     0.76988337E+00
              20       0.29235612E+01     0.72380563E+00
              21       0.26865410E+01     0.65790974E+00
              22       0.24805349E+01     0.58417924E+00
              23       0.23068575E+01     0.52163720E+00
              24       0.21338831E+01     0.48024957E+00
              25       0.19059005E+01     0.46064830E+00
              26       0.16060187E+01     0.44472603E+00
              27       0.12791195E+01     0.42026655E+00
              28       0.10037109E+01     0.38514785E+00
              29       0.82248760E+00     0.33761602E+00
              30       0.65876062E+00     0.27084676E+00
              31       0.43380478E+00     0.17811250E+00
              32       0.18818658E+00     0.77264216E-01
              33       0.35414187E-01     0.14540088E-01
              34       0.12541646E-02     0.51492540E-03
              35       0.15729288E-05     0.64580101E-06
              36       0.28101149E-11     0.12221335E-11
              37       0.10782877E-11     0.39790393E-12
================================================================================



=============== Joint valence and conduction diagonalisation ==================

===================== Writing canonical molecular orbitals =====================
| Orbital  Energy (eV)  Norm     |
| HOMO     -6.83118425  1.000000 | Writing "ethene_cond_joint_HOMO.cube" ...
  done
| LUMO     -0.72142120  1.000000 | Writing "ethene_cond_joint_LUMO.cube" ...
  done
================================================================================

================== Local Density of States (LDOS) calculation ==================
Writing "ethene_cond_joint_LDOS.txt" ...  done
================================================================================

================ Writing optical matrix elements ================
Writing "ethene_cond_joint_OPT_MAT_ELS.txt" ...  done
================================================================================
 
===================== Density of States (DOS) calculation ======================
Writing "ethene_cond_joint_DOS.txt" ...  done
================================================================================
 
Writing bands to file "ethene_cond.joint_bands" ... done

=================== Orbital energy and occupancy information ===================

      Total number of orbitals:      36
   Number of occupied orbitals:       6
                 Occupancy sum:       0.000000000
                 HOMO-LUMO gap:       0.224529665 Eh
                 Mid-gap level:      -0.138776574 Eh

                        Orbital | Energy (Eh) | Occupancy
                            1    -0.709242972   0.0000000
                            2    -0.521171629   0.0000000
                            3    -0.420678433   0.0000000
                            4    -0.378915281   0.0000000
                            5    -0.301819378   0.0000000
                            6    -0.251041406   0.0000000
                        .......   --- gap ---   .........
                            7    -0.026511742   0.0000000
                            8     0.061391565   0.0000000
                            9     0.092394593   0.0000000
                           10     0.106157898   0.0000000
                           11     0.202217783   0.0000000
                           12     0.273592267   0.0000000
                           13     0.276395684   0.0000000
                           14     0.279888501   0.0000000
                           15     0.285495651   0.0000000
                           16     0.300978546   0.0000000
                        .......   ...........   .........
                           36     2.459949336   0.0000000
 
<QC>     [energy_eigenvalue_1]:     -0.709242972104
<QC>     [energy_eigenvalue_n]:      2.459949335796
<QC>  [occupancy_eigenvalue_1]:      0.000000
<QC>  [occupancy_eigenvalue_n]:      0.000000

================================================================================
+------------------------------------------------------------------------------+
|               Conduction properties calculation complete                     |
+------------------------------------------------------------------------------+

------------------------------ TIMING INFORMATION ------------------------------
TOTAL TIME:      36.482s on     4 node(s)

Job completed: 20-09-2011 14:38 (+0100)

