Defaulting to ethernet
No MPI process pinning
Starting MPD ring...
PBS has allocated the following nodes:
cx1-8-5-1
cx1-8-5-1
cx1-8-5-1
cx1-8-5-1
---
mpiexec.intel -genv I_MPI_DEVICE ssm -genv I_MPI_DEBUG 0 -genv I_MPI_PIN no -genv I_MPI_PIN_MODE none -genv I_MPI_FALLBACK_DEVICE disable -genv DAPL_MAX_CM_RETRIES 500 -genv DAPL_MAX_CM_RESPONSE_TIME 300 -genv I_MPI_DAPL_CONNECTION_TIMEOUT 300 -machinefile /tmp/pbs.5705184.cx1/tmp.fSHcx26804 -n 4 -wdir /home/nhine/ONETEP/devel/tests/test28 /home/nhine/ONETEP/devel/bin/onetep.cx1 h_bond_class_CC

Job output begins below
-----------------------
 +---------------------------------------------------------------+
 |                                                               |
 |        ####### #     # ####### ####### ####### ######         |
 |        #     # ##    # #          #    #       #     #        |
 |        #     # # #   # #          #    #       #     #        |
 |        #     # #  #  # #####      #    #####   ######         |
 |        #     # #   # # #          #    #       #              |
 |        #     # #    ## #          #    #       #              |
 |        ####### #     # #######    #    ####### #              |
 |                                                               |
 |        Linear-Scaling Ab Initio Total Energy Program          |
 |                                                               |
 |          Release for academic collaborators of ODG            |
 |                                              Version 3.0      |
 |                                                               |
 +---------------------------------------------------------------+
 |                                                               |
 |  Authors:                                                     |
 |  Peter D. Haynes, Nicholas D. M. Hine, Arash. A. Mostofi,     |
 |  Mike C. Payne and Chris-Kriton Skylaris                      |
 |                                                               |
 |  Contributors:                                                |
 |  P. W. Avraam, S. J. Clark, O. Dieguez, S. M. M. Dubois,      |
 |  J. Dziedzic, H. H. Helal, Q. O. Hill, D. D. O`Regan,         |
 |  C. J. Pickard, M. I. J. Probert, L. Ratcliff, M. Robinson    |
 |  and A. Ruiz Serrano                                          |
 |                                                               |
 |                                   Copyright (c) 2004-2011     |
 |                                                               |
 |  Please cite:                                                 |
 |  "Introducing ONETEP: Linear-scaling density functional       |
 |   simulations on parallel computers".                         |
 |   C.-K. Skylaris, P. D. Haynes, A. A. Mostofi, M. C. Payne.   |
 |   J. Chem. Phys. 122 084119 (2005).                           |
 |                                                               |
 |          in all publications arising from your use of ONETEP. |
 |                                                               |
 +---------------------------------------------------------------+
 |                                                               |
 |   ONETEP is based on developments described in the following  |
 |   publications:                                               |
 |                                                               |
 |  "Nonorthogonal generalized Wannier function pseudopotential  |
 |   plane-wave method".                                         |
 |   C.-K. Skylaris, A. A. Mostofi, P. D. Haynes, O. Dieguez,    |
 |   M. C. Payne.                                                |
 |   Phys. Rev. B 66 035119 (2002).                              |
 |                                                               |
 |  "Preconditioned iterative minimization for linear-scaling    |
 |   electronic structure calculations".                         |
 |   A. A. Mostofi, P. D. Haynes, C.-K. Skylaris, M. C. Payne.   |
 |   J. Chem. Phys. 119(17), pp.8842-8848 (2003).                |
 |                                                               |
 |  "Total-energy calculations on a real space grid with         |
 |   localized functions and a plane-wave basis".                |
 |   A. A. Mostofi, C.-K. Skylaris, P. D. Haynes, M. C. Payne.   |
 |   Comput. Phys. Commun. 147, pp.788-802 (2002).               |
 |                                                               |
 |  "Accurate kinetic energy evaluation in electronic structure  |
 |   calculations with localized functions on real space grids"  |
 |   C.-K. Skylaris, A. A. Mostofi, P. D. Haynes, C. J. Pickard, |
 |   M. C. Payne.                                                |
 |   Comput. Phys. Commun. 140, pp.315-322 (2001).               |
 |                                                               |
 +---------------------------------------------------------------+

Job started: 28-05-2011 02:37 (+0100)

Running on     4 processors.

Reading parameters from file "h_bond_class_CC.dat" ...... done
Reading geometry and species blocks from file "h_bond_class_CC.dat" ...
  <species_atomic_set> block not found: NGWF initialisation set to AUTO
    
    
  PSINC grid spacing along a1 set to   0.607142857143a0 from input file.
  PSINC grid spacing along a2 set to   0.619047619048a0 from input file.
  PSINC grid spacing along a3 set to   0.616000000000a0 from input file.
... done
-------------------------------------------------------------------------------
---------------------------- RUN-TIME PARAMETERS ------------------------------
-------------------------------------------------------------------------------
task                      : SINGLEPOINT *! Type of calculation (String)         
cutoffenergy              : 20.0000000000000      hartree *! Plane wave kinetic 
kernelcutoff              : 1000.00000000000 *! Density kernel radius in Bohr ( 
xcfunctional              : LDA *! Exchange-correlation functional (String)     
libxcxfuncid              : 0 *! Functional identifier for which exchange funct 
libxccfuncid              : 0 *! Functional identifier for which correlation fu 
charge                    : -2.00000000000000 *! The total charge of the system 
spin                      : 0 *! Total spin of system (Integer)                 
spinpolarized             : F *! Switch for spin polarization (Boolean)         
spinpolarised             : F *! Switch for spin polarisation (Boolean)         
constantefield            : 0.0 0.0 0.0 *! Cartesian coordinates of constant el 
fftboxpref                : 0 0 0 *! Preferred FFT box dimensions (String)      
ppdnpoints                : 0 0 0 *! PPD edge length in grid points for each la 
psincspacing              : 0.0 0.0 0.0 *! PSINC grid spacing in atomic units ( 
oldinput                  : F *! Read old-format input file (Boolean)           
develcode                 : *! For development code only (String)               
nnho                      : F *! Initialise NGWFs to nonorthogonal natural hybr 
ngwfhalo                  : -1.00000000000000 *! Halo extension to NGWF radii ( 
nonscforces               : F *! Include non self-consistent forces due to NGWF 
maxitpalsermano           : 50 *! Maximum number of iterations for Palser-Manol 
maxitpen                  : 3 *! Max number of penalty functional iterations (I 
penparam                  : 4.00000000000000 *! Penalty functional parameter (D 
minitlnv                  : 3 *! Min number of LNV iterations (Integer)         
maxitlnv                  : 8 *! Max number of LNV iterations (Integer)         
maxitlnvcoarse            : 0 *! Max number of low-accuracy LNV iterations (Int 
lnvthresholdorig          : 1.000000000000000E-009 *! LNV convergence threshold 
lnvcgtype                 : LNV_FLETCHER *! Type of CG coefficient for LNV dens 
lnvcgmaxstep              : 3.00000000000000 *! Maximum length of trial step fo 
exactlnv                  : T *! Use original LNV algorithm (Boolean)           
oldlnv                    : F *! Use LNV algorithm backwards compatible pre Dec 
lnvchecktrialsteps        : F *! Check stability of kernel at each trial step d 
kerfix                    : 1 *! Density kernel fixing approach (Integer)       
maxitkernelfix            : 3 *! Maximum # iterations of Penalty Functional ide 
initialdensrealspace      : F *! Construct initial density in real space from a 
kerneldiis                : F *! Use kernel DIIS in the inner loop (Boolean)    
kerneldiistype            : P *! Density mixing method (String)                 
kerneldiismax             : 10 *! Max number of kernels saved during kernel DII 
kerneldiismaxit           : 25 *! Max number of kernel DIIS iterations (Integer 
kerneldiisthres           : 1.000000000000000E-009 *! Density mixing convergenc 
kerneldiisliter           : 5 *! Number of linear mixing iterations (Integer)   
kerneldiiscin             : 0.900000000000000 *! Coefficient for the input kern 
kerneldiiscriteria        : 1000 *! Density mixing convergence criteria (String 
maxitngwfcg               : 60 *! Max number of NGWF conjugate gradients (CG) i 
ngwfcgtype                : NGWF_FLETCHER *! Type of CG coefficient for NGWF op 
ngwfcgmaxstep             : -8.00000000000000 *! Maximum length of trial step f 
eleccgmax                 : 5 *! Number of NGWF iterations to reset CG (Integer 
precondscheme             : TETER *! Recip-space preconditioning scheme (String 
kzero                     : 3.00000000000000 *! KE preconditioning parameter (D 
rprecond                  : 2.00000000000000 *! Radial cut-off for real-space p 
precondrecip              : T *! Recip-space KE preconditioning (Boolean)       
precondreal               : F *! Real-space KE preconditioning (Boolean)        
smoothscheme              : NONE *! Smoothing scheme for the NGWF gradients at  
rsmooth                   : 1.50000000000000      bohr *! Radius of the unshave 
ksmooth                   : 5.00000000000000 *! Characteristic wavelength of th 
occmix                    : 0.250000000000000 *! Mix fraction of occupancy prec 
kernelupdate              : F *! Update density kernel during NGWF line search  
kernelchristoffelupdate   : F *! Update density kernel during NGWF line search  
maxithotelling            : 50 *! Number of Hotelling iteration per NGWF change 
maxresidhotelling         : 1.000000000000000E-012 *! Max allowed value in Hote 
maxitngwfdiis             : 0 *! Max number of NGWF DIIS steps (Integer)        
ngwfdiissize              : 4 *! Max size of the DIIS iterative subspace (Integ 
ngwfdiisreset             : 8 *! Max number of iteration for the resetting of D 
ngwfdiismaxstep           : 2.00000000000000 *! Max length of trial step for NG 
ngwfthresholdorig         : 2.000000000000000E-006 *! NGWF convergence threshol 
elecenergytol             : -1.000000000000000E-003 hartree *! Tolerance on tot 
elecforcetol              : -1.000000000000000E-003 ha/bohr *! Tolerance on max 
ngwfmaxgrad               : -2.000000000000000E-005 *! Maximum permissible valu 
deltaeconv                : T *! Use consecutive energy gains as a criterion fo 
locpotintbatchsize        : 10 *! Size of NGWF in fftbox batch for locpot integ 
kineticintbatchsize       : 10 *! Size of NGWF in fftbox batch for kinetic inte 
densitybatchsize          : 10 *! Size of NGWF in fftbox batch for charge densi 
ngwfgradbatchsize         : 10 *! Size of NGWF in fftbox batch for NGWF gradien 
densethreshold            : 0.400000000000000 *! Threshold for matrix segment f 
commsgroupsize            : 4 *! Number of nodes in a group (determines comms e 
ovlpfornonlocal           : F *! Overlap sparsity for nonlocal (Boolean)        
usespacefillingcurve      : T *! Re-arrange atoms according to space-filling cu 
corehamdenskernguess      : T *! Initial guess for density kernel from core Ham 
checkatoms                : T *! Check atoms on top of each other (Boolean)     
locpotscheme              : FULL *! Scheme for evaluating local potential matri 
smoothprojectors          : -0.400000000000000 *! Halfwidth of Gaussian filter  
smoothlocpspot            : -0.400000000000000 *! Halfwidth of Gaussian filter  
oddpsincgrid              : F *! Force odd number of points in simcell psinc gr 
evenpsincgrid             : F *! Force even number of points in simcell psinc g 
realspaceprojectors       : F *! Whether to evaluate and store projectors in re 
outputdetail              : VERBOSE *! Level of output detail (String)          
pawoutputdetail           : DEFAULT *! Level of output detail for PAW: BRIEF, N 
timingslevel              : 0 *! Level of timings output: 0(none) 1(nodes summa 
writeparams               : T *! Output runtime parameters at startup (Boolean) 
writeforces               : F *! Write ionic forces (Boolean)                   
writepositions            : T *! Write ionic positions each geometry or MD step 
writexyz                  : F *! Output coordinates in .xyz file (Boolean)      
printqc                   : T *! Print Quality Control information (Boolean)    
cubeformat                : F *! Allow .cube format for plot outputs (Boolean)  
dxformat                  : F *! Allow .dx format for plot outputs (Boolean)    
dxformatcoarse            : F *! Output only points on the coarse grid (Boolean 
dxformatdigits            : 7 *! Number of significant digits in .dx output (In 
grdformat                 : T *! Allow .grd format for plot outputs (Boolean)   
writedensityplot          : T *! Write the charge density in plotting format (B 
writengwfplot             : F *! Write NGWFs in plotting format (Boolean)       
writengwfgradplot         : F *! Write NGWF Gradients in plotting format (Boole 
writengwfradial           : F *! Write NGWFs radial distributions (Boolean)     
writengwfgradradial       : F *! Write NGWFs gradients radial distributions (Bo 
writeradialstep           : 5.000000000000000E-003 bohr *! Define the grid step 
writeradialsmear          : 1.000000000000000E-002 bohr *! Define the gaussian  
readdenskern              : F *! Read density kernel restart information (Boole 
writedenskern             : F *! Write density kernel restart information (Bool 
readtightboxngwfs         : F *! Read in universal tightbox NGWFs restart infor 
writetightboxngwfs        : F *! Write in universal tightbox NGWFs restart info 
writeconvergeddkngwfs     : F *! Only write Density Kernel and NGWFs upon conve 
readswngwfs               : F *! Read NGWFs restart information in spherical wa 
writeswngwfs              : F *! Write NGWFs restart information in spherical w 
writemaxl                 : 3 *! Maximum angular momentum number when writing i 
readmaxl                  : 3 *! Maximum angular momentum number when reading i 
extransw                  : 0 *! Maximum number of zeros of the sph Bessel func 
paw                       : F *! Uses a PAW construction to find correct core d 
finegridscale             : 2.00000000000000 *! Ratio of size of fine grid to s 
dblgridscale              : 2.00000000000000 *! Ratio of charge density / poten 
augfuncsrecip             : T *! Construct Augmentation functions in recip spac 
dispersion                : 0 *! Select dispersion correction (Integer)         
vdwdcoeff                 : -1.00000000000000 *! Replacement VDW damping coeffi 
hubbardmaxiter            : 0 *! Maximum number of DFT+U projector optimisation 
hubbardenergytol          : 1.000000000000000E-008 hartree *! Energy tolerance  
hubbardconvwin            : 2 *! Energy convergence window when using DFT+U pro 
hubbardprojmixing         : 0.000000000000000E+000 *! Proportion of old Hubbard 
hubbardfunctional         : 1 *! DFT+U energy functional to use (Integer)       
hubbardtensorcorr         : 1 *! DFT+U projector tensorial correction to use (I 
hubbardngwfspinthreshold  : 2.000000000000000E-005 *! NGWF RMS  gradient thresh 
coulombcutoffradius       : 25.0000000000000 *! Radius of sphere or cylinder fo 
coulombcutofflength       : 0.000000000000000E+000 *! Length of cylinder or wid 
coulombcutofftype         : SPHERE *! Type of cutoff coulomb interaction: NONE, 
coulombcutoffwriteint     : F *! Write real-space cutoff Coulomb interaction sc 
pbccorrectioncutoff       : 0.000000000000000E+000 *! alpha*L cutoff parameter  
doproperties              : F *! Allow calculation of properties (Boolean)      
numeigenvalues            : 10 *! Number of energy and occupancy eigenvalues to 
homodensplot              : -1 *! Number of squared MOs to plot from HOMO and l 
lumodensplot              : -1 *! Number of squared MOs to plot from LUMO and h 
homoplot                  : 5 *! Number of MOs to plot from HOMO and lower (Int 
lumoplot                  : 5 *! Number of MOs to plot from LUMO and higher (In 
dossmear                  : 3.674932438755288E-003 hartree *! Half width of sme 
ldossmear                 : 3.674932438755288E-003 hartree *! Lorentzian broade 
popncalculate             : F *! Allow population analysis (Boolean)            
popnbondcutoff            : 5.66917840375065      bohr *! Bond length cutoff fo 
ngwfanalysis              : F *! Perform NGWF analysis (Boolean)                
polarisationcalculate     : F *! Allow calculation of polarisation (Boolean)    
spreadcalculate           : F *! Calculate spread of NGWFs (Boolean)            
geommodulusest            : 1.700000000000000E-002 ha/bohr**3 *! The estimated  
geomfrequencyest          : 7.600000000000000E-003 hartree *! The estimated ave 
geomenergytol             : 1.000000000000000E-006 hartree *! Geometry optimiza 
geomforcetol              : 2.000000000000000E-003 ha/bohr *! Geometry optimiza 
geomdisptol               : 5.000000000000000E-003 bohr *! Geometry optimizatio 
geommaxiter               : 50 *! Maximum number of geometry optimization itera 
geomconvergencewin        : 2 *! Geometry optimization convergence tolerance wi 
geomcontinuation          : F *! Read information for continuation of a previou 
geombackupiter            : 1 *! Number of geometry optimisation iterations bet 
geomresetdkngwfsiter      : 6 *! Number of geom iterations between resets of ke 
geomreusedkngwfs          : T *! Re-use density kernel and NGWFs during geometr 
geomprintinvhessian       : F *! Write inverse Hessian to standard output (Bool 
geommethod                : CARTESIAN *! Method for geometry optimization (Stri 
tssearchmethod            : LSTQST *! Specifies method to be used for TS search 
tssearchlstqstprotocol    : LSTMAXIMUM *! Specifies LSTQST protocol (String)    
tssearchqstmaxiter        : 5 *! Specifies maximum number of QST steps (Integer 
tssearchcgmaxiter         : 20 *! Specifies maximum number of CG steps (Integer 
tssearchforcetol          : 5.000000000000000E-003 ha/bohr *! Force tolerance f 
tssearchdisptol           : 1.000000000000000E-002 bohr *! Displacement toleran 
mddeltat                  : 40.0000000000000      aut *! Molecular dynamics tim 
mdnumiter                 : 100 *! Maximum number of molecular dynamics iterati 
mdtemperature             : 9.500000000000000E-004 hartree *! Temperature for m 
mdalgorithm               : LEAPFROGVERLET *! Integration algorithm for molecul 
mdthermostat              : NONE *! Thermostat for molecular dynamics (String)  
mdcollisionfrequency      : 0.152000000000000      hartree *! Collision frequen 
mixdenskern               : 0 *! Number of coefficients used to build new guess 
mixngwfs                  : 0 *! Number of coefficients used to build new guess 
condreaddenskern          : F *! Read in conduction density kernel (Boolean)    
condreadtightboxngwfs     : F *! Read in universal tightbox conduction NGWFs (B 
condfixedshift            : F *! Fixed projected conduction Hamiltonian shift ( 
condcalcmaxeigen          : T *! Calculate maximum conduction Hamiltonian eigen 
condnumstates             : 0 *! Number of conduction states to be optimised fo 
condkernelcutoff          : 1000.00000000000 *! Conduction density kernel radiu 
condinitshift             : 0.000000000000000E+000 *! Initial shifting factor f 
condshiftbuffer           : 0.100000000000000 *! Additional buffer for updating 
condnumextrastates        : 0 *! Number of extra conduction states for initial  
condnumextraits           : 0 *! Number of NGWF iterations with extra conductio 
condplotjointorbitals     : T *! Plot orbitals in the joint basis following a c 
condplotvcorbitals        : T *! Plot orbitals in the val and cond NGWF basis s 
condcalcopticalspectra    : F *! Calculate matrix elements for optical absorpti 
condspeccalcmommatels     : T *! Calculate momentum matrix elements (default tr 
condspeccalcnonloccomm    : T *! Calculate nonlocal commutator for momentum mat 
condspeccontderiv         : T *! Calculate non-local commuator using continuous 
condspecnonloccommshift   : 1.000000000000000E-004 *! Finite difference shift f 
bskpointpathspacing       : 0.188972700000000      1/bohr *! K-point spacing al 
bsnumeigenvalues          : -1 *! Num of energy and occ. eigenvalues to print b 
bsunfold                  : 0 0 0 *! Number of times to unfold Brillouin zone i 
bsmethod                  : TB *! Method to use: 'KP' or 'TB' (String)          
dotddft                   : F *! Allow Time-Dependent DFT calculation (Boolean) 
tddftmaximumenergy        : 1.00000000000000      hartree *! Desired maximum of 
tddftresolution           : 1.000000000000000E-003 hartree *! Desired resolutio 
tddftpropagationmethod    : CRANKNICHOLSON *! Method used to integrate von Neum 
tddftsparsitylevel        : 0 *! Matrix sparsity when computing propagators e.g 
tddfttammdancoff          : F *! Invoke Tamm-Dancoff decoupling approximation ( 
tddftdipolekickstrength   : 0.0 0.0 0.0 *! Maximum allowed phase shift in TDDFT 
tddftxcfunctional         : LDA *! Exchange-correlation functional for TDDFT (S 
tddfthamiltonianmixing    : 0 *! Order of polynomial extrapolation to H(t + hal 
tddftdamping              : 0.000000000000000E+000 hartree *! Energy smearing w 
tddftenforcedidempotency  : F *! Project out at each timestep that part of chan 
tddftmaxithotelling       : 50 *! Number of Hotelling iteration per propagation 
tddftmaxresidhotelling    : 1.000000000000000E-018 *! Max allowed value in Hote 
tddftinvoverlapexact      : T *! Renew inverse overlap with O N^3 algorithm bef 
isimplicitsolvent         : F *! Use implicit solvent? (Boolean)                
issmearedionrep           : F *! Implicit solvent: use smeared ions for electro 
isincludecavitation       : F *! Implicit solvent: include cavitation energy (B 
isdensitythreshold        : 7.800000000000000E-004 *! Implicit solvent: rho_0 p 
issolvationbeta           : 1.30000000000000 *! Implicit solvent: beta paramete 
isbulkpermittivity        : 1.00000000000000 *! Implicit solvent: eps_inf param 
ismultigriddefecterrortol : 1.000000000000000E-002 *! Implicit solvent: stop cr 
ismultigriderrortol       : 1.000000000000000E-005 *! Implicit solvent: stop cr 
issmearedionwidth         : 0.800000000000000 *! Implicit solvent: Width of Gau 
issurfacethickness        : 2.000000000000000E-004 *! Implicit solvent: thickne 
issolventsurfacetension   : 4.762400000000000E-005 ha/bohr**2 *! Implicit solve 
ismultigridmaxiters       : 100 *! Implicit solvent: max number of iterations i 
ismultigridnlevels        : 4 *! Implicit solvent: number of levels in multigri 
isdiscretizationorder     : 8 *! Implicit solvent: discretization order (2nd, 4 
isbccoarseness            : 5 *! Implicit solvent: controls boundary condition  
isbcsurfacecoarseness     : 1 *! Implicit solvent: controls boundary condition  
ischecksolvenergygrad     : F *! Implicit solvent: sanity check the energy grad 
issolvationmethod         : DIRECT *! Implicit solvent: direct or corrective me 
isdielectricmodel         : FIX_INITIAL *! Implicit solvent: how the cavity is  
isdielectricfunction      : FGF *! Implicit solvent: how the cavity is determin 
issolvationoutputdetail   : NONE *! Implicit solvent: controls extra output (St 
openbcionion              : F *! Force open BCs in ion-ion energy (Boolean)     
openbchartree             : F *! Force open BCs in Hartree potential (Boolean)  
openbcpspot               : F *! Force open BCs in local pseudopotential (Boole 
openbcpspotfinetunenptsx  : 100000 *! Open BCs in local pseudo, npts_x paramete 
openbcpspotfinetunealpha  : 0.300000000000000 *! Open BCs in local pseudo, alph 
openbcpspotfinetunef      : -1 *! Open BCs in local pseudo, fineness parameter  
%block positionsabs       : *! Cartesian positions for each atom (Block)        
O     24.887507   23.896975   22.647313                                         
C     27.731659   23.667449   22.643306                                         
H     28.655157   21.721170   22.637547                                         
H     28.955467   25.440371   22.646039                                         
%endblock positionsabs    : *! Cartesian positions for each atom (Block)        
%block latticecart        : *! The simulation cell lattice vectors (Block)      
51.00     0.00     0.00                                                         
0.00    52.00     0.00                                                          
0.00     0.00    46.20                                                          
%endblock latticecart     : *! The simulation cell lattice vectors (Block)      
%block species            : *! Species information (symbol, atomic number, numb 
O    O    8    4    6.3                                                         
C    C    6    4    6.3                                                         
H    H    1    1    6.0                                                         
%endblock species         : *! Species information (symbol, atomic number, numb 
%block speciespot         : *! Pseudopotential name for each species (Block)    
O    "../../pseudo/oxygen.recpot"                                               
C    "../../pseudo/carbon.recpot"                                               
H    "../../pseudo/null.recpot"                                                 
%endblock speciespot      : *! Pseudopotential name for each species (Block)    
%block classicalinfo      : *! Include classical atoms Coulomb interaction in t 
O     19.766101   21.820471   22.648599   -0.7                                  
H     17.687651   22.103070   22.651801    0.3                                  
H     20.725313   23.685785   22.651874    0.4                                  
H     28.655157   21.721170   22.637547    1.0                                  
H     28.955467   25.440371   22.646039    1.0                                  
%endblock classicalinfo   : *! Include classical atoms Coulomb interaction in t 
-------------------------------------------------------------------------------
-------------------------------------------------------------------------------

WARNING in pseudopotentials_read_species: string "GGA" found in pseudopotential
file "../../pseudo/carbon.recpot", yet xc_functional = "LDA".
 
<<<<<<<<<<<<<<<<<<<<<<<<< Pseudopotential information >>>>>>>>>>>>>>>>>>>>>>>>>
File: ../../pseudo/oxygen.recpot [ 2001 points up to Gmax=  52.9 (1/bohr)]
  Atomic number:  8;  ionic charge:  6.000000
    Shell 1: l = 0; rc = 1.31 bohr
File: ../../pseudo/carbon.recpot [ 2001 points up to Gmax=  52.9 (1/bohr)]
  Atomic number:  6;  ionic charge:  4.000000
    Shell 1: l = 0; rc = 1.48 bohr
File: ../../pseudo/null.recpot [ 2001 points up to Gmax=  52.9 (1/bohr)]
  Atomic number:  1;  ionic charge:  0.000000
    Local potential
<<<<<<<<<<<<<<<<<<<<<<<<<<<<<<<<<<<<<<< >>>>>>>>>>>>>>>>>>>>>>>>>>>>>>>>>>>>>>>

------------------------- Atom counting information ---------------------------
Symbol    Natoms    Nngwfs    Nprojs
  O          1         4         1
  C          1         4         1
  H          2         2         0
.......   ......    ......    ......
Totals:      4        10         2
-------------------------------------------------------------------------------
 
Determining parallel strategy ...
... using space-filling curve
... NGWF load balancing: max      4;  min      1;  average      3
... Projector load balancing: max      1;  min      0;  average      1
... done

Calculating direct Ion-Ion energy ...... FFT-box specified

Basis initialisation ...
... Atom positions lie inside simulation cell
... NGWF spheres initialised
... Projector spheres initialised
... NGWF tight boxes initialised
... NGWF basis size (local,global):       3292      9552
... Tight-boxes gathered
... done

============================== PSINC grid sizes ================================
                      Simulation cell:   84 x  84 x  75
                              FFT-box:   63 x  63 x  63
                                  PPD:    6 x   6 x   5
Grid space d1=  0.607142857143a0 (KE cutoff=  20.60735Eh = 560.75462eV)
Grid space d2=  0.619047619048a0 (KE cutoff=  19.82238Eh = 539.39452eV)
Grid space d3=  0.616000000000a0 (KE cutoff=  20.01901Eh = 544.74496eV)
================================================================================

********************** Fourier parallelisation information *********************
       Coarse grid (whole simulation cell) dimensions:     84    84    75

                 Real-space grid ('12' slabs):
                   Node    0:   18 (from    1 to   18)
                   Node    1:   19 (from   19 to   37)
                   Node    2:   19 (from   38 to   56)
                   Node    3:   19 (from   57 to   75)

                 Reciprocal-space grid ('23' slabs):
                   Node    0:   10 (from    1 to   10)
                   Node    1:   11 (from   11 to   21)
                   Node    2:   11 (from   22 to   32)
                   Node    3:   11 (from   33 to   43)
********************************************************************************

********************** Fourier parallelisation information *********************
       Double grid (whole simulation cell) dimensions:    168   168   150

                 Real-space grid ('12' slabs):
                   Node    0:   37 (from    1 to   37)
                   Node    1:   38 (from   38 to   75)
                   Node    2:   38 (from   76 to  113)
                   Node    3:   37 (from  114 to  150)

                 Reciprocal-space grid ('23' slabs):
                   Node    0:   21 (from    1 to   21)
                   Node    1:   21 (from   22 to   42)
                   Node    2:   22 (from   43 to   64)
                   Node    3:   21 (from   65 to   85)
********************************************************************************

============================== PSINC grid sizes ================================
                          Padded cell:  144 x 144 x 135
                                  PPD:    6 x   6 x   5
================================================================================

********************** Fourier parallelisation information *********************
       Padded Grid (whole simulation cell) dimensions:    288   288   270

                 Real-space grid ('12' slabs):
                   Node    0:   67 (from    1 to   67)
                   Node    1:   68 (from   68 to  135)
                   Node    2:   68 (from  136 to  203)
                   Node    3:   67 (from  204 to  270)

                 Reciprocal-space grid ('23' slabs):
                   Node    0:   36 (from    1 to   36)
                   Node    1:   36 (from   37 to   72)
                   Node    2:   37 (from   73 to  109)
                   Node    3:   36 (from  110 to  145)
********************************************************************************
Checking all ngwfs are fully within unit cell ... done
Calculating transform of cutoff Coulomb interaction ... done

=========================== Sparse matrix information ==========================
                        Overlap matrix filling: 100.00%
                        Density kernel filling: 100.00%
              NGWF-Proj overlap matrix filling: 100.00%
                    Hamiltonian matrix filling: 100.00%
                  NGWF diagonal matrix filling:  34.00%
                             KS matrix filling: 100.00% 
                           KSKS matrix filling: 100.00% 
================================================================================

Sparse matrix initialisation ... done
NGWF initialisation ...... done

============ Calculation of NGWF S^-1 using Hotelling algorithm ================ 
         Iteration  |  Frobenius norm and Maximum abs value    (of I-S*S_n^-1)   
               1       0.26857028E+01     0.97818808E+00
               2       0.24992495E+01     0.95859252E+00
               3       0.23522645E+01     0.92421861E+00
               4       0.22187566E+01     0.86226903E+00
               5       0.20228991E+01     0.77061225E+00
               6       0.17194571E+01     0.65203022E+00
               7       0.13231800E+01     0.49843196E+00
               8       0.88972606E+00     0.34059555E+00
               9       0.46130225E+00     0.19209512E+00
              10       0.13950492E+00     0.65926871E-01
              11       0.15051506E-01     0.78690627E-02
              12       0.20768524E-03     0.11299450E-03
              13       0.42762670E-07     0.23361746E-07
              14       0.21954289E-14     0.77715612E-15
================================================================================

Calculating structure factor for      5 classical atoms ...... done
Calculating embedding potential with Gauss exp= 7.70164  ...... done
Up spin density kernel initialisation ... 
======= Optimisation of K by Palser-Manolopoulos canonical purification ======== 
         Iteration  |  Band structure energy |    c_n   
               1          -1.83678030975555    0.5416189
               2          -1.93596417307527    0.5274240
               3          -2.04790073201444    0.5068841
               4          -2.16021627729729    0.4859629
               5          -2.25695190563476    0.4695053
               6          -2.32722080666310    0.4621225
               7          -2.36889677492276    0.4651607
               8          -2.39341413220251    0.4634048
               9          -2.40821892425366    0.4691269
              10          -2.41694085410637    0.4909485
              11          -2.42231529585880    0.4994696
              12          -2.42430476971789    0.4999983
              13          -2.42451337435741    0.5000000
              14          -2.42451537123543    0.4999998
              15          -2.42451537141547   -0.0295591
Final occupancy bounds: [    0.00000000000000:    1.00000000000000]
Closest occupancy to 0.5:     1.00000000000000
================================================================================
... done
   Initial electron number for spin 1:      12.00000000
     Final electron number for spin 1:      12.00000000
................................................................................
<<<<<<<<<<<<<<<< Penalty functional density kernel optimisation >>>>>>>>>>>>>>>>
~~~~~~~~~~~~~~~~~~~~~~~~~~~~~~~~~~~~~~~~~~~~~~~~~~~~~~~~~~~~~~~~~~~~~~~~~~~~~~~~
iter|       energy      |   rms grad  |  commutator |LScoef|CGcoef|      Ne    |
      Q0=E0+P0:     -20.884458134850=    -20.884458134850+      0.000000000000
    Trial step:       1.000000000000
            G0:      -8.942322756180
WARNING: minimum value of charge density: -0.1492
      Q1=E1+P1:     229.264676452998=    -19.964993960834+    249.229670413833
Quadratic term:    -259.091457344028
   Linear term:      -8.942322756180
  Optimal step:       0.017257077574
 Predicted min:     -20.961617313597
    !!! Quadratic minimum step length accepted !!!
 1    -20.88445813485016 0.29903716753 0.08465172569 0.0173  0.000   12.00000000
      Q0=E0+P0:     -21.025781025271=    -21.035799793989+      0.010018768718
    Trial step:       0.131366196465
            G0:      -0.112101901586
      Q1=E1+P1:     -21.039674930650=    -21.050843130328+      0.011168199678
Quadratic term:      -0.000832495049
   Linear term:      -0.014726400428
  Optimal step:       1.161899529305
 Predicted min:     -21.090906598615
    !!! Quadratic minimum step length accepted !!!
 2    -21.03579979398921 0.24794382344 0.07674055982 1.1619 -0.815   12.00000000
      Q0=E0+P0:     -21.083639847803=    -21.167057082228+      0.083417234425
    Trial step:       0.390684427434
WARNING: internal_polak_cg_coeff =  9.16730
WARNING: setting internal_polak_cg_coeff to zero
            G0:      -7.052665963351
WARNING: minimum value of charge density: -0.0126
      Q1=E1+P1:     -11.898776716499=    -21.900034099461+     10.001257382962
Quadratic term:     -11.940229895082
   Linear term:      -2.755366763778
  Optimal step:       0.045077812401
 Predicted min:     -21.242599224415
    !!! Quadratic minimum step length accepted !!!
 3    -21.16705708222825 0.26556855920 0.08122522699 0.0451  0.000   12.00000000

======================== Penalty functional minimisation =======================
   Final total energy     :     -21.455503416447
   Final penalty energy   :       0.147827807101
   RMS occupancy error    :       0.060792
   Occupancy bounds       : [-0.070, 1.119]
================================================================================

Finished density kernel iterations (   3)

################################################################################
########################### NGWF CG iteration  001 #############################
################################################################################
****** Reciprocal space K.E. preconditioning with k_zero =  3.0000 a0^-1 *******
   Initial electron number for spin 1:      12.00000000
     Final electron number for spin 1:      12.00000000

=================== Penalty functional idempotency correction ==================
 RMS occupancy error at iteration   1:  0.060792 (step -0.3908 Ne1=     12.0000)
 RMS occupancy error at iteration   2:  0.004283 (step -0.4992 Ne1=     12.0000)
 RMS occupancy error at iteration   3:  0.000062 (step -0.5002 Ne1=     12.0000)
            Final RMS occupancy error   :  0.000000 (Ne1=     12.0000)
               Final occupancy bounds   : [  0.0000,  1.0000]
================================================================================

................................................................................
<<<<<<<<<<<<<< LNV (Original version) density kernel optimisation >>>>>>>>>>>>>>
~~~~~~~~~~~~~~~~~~~~~~~~~~~~~~~~~~~~~~~~~~~~~~~~~~~~~~~~~~~~~~~~~~~~~~~~~~~~~~~~
iter|       energy      |  rms DeltaK |  commutator |LScoef|CGcoef|      Ne    |
      ideal mu1:      -0.590354534002
             Q0:     -21.014827237443
             G0:      -0.445295128551
   RMS gradient:       0.066730437474
    Initial Ne1:      12.00000005
      Final Ne1:      12.00000000

=================== Penalty functional idempotency correction ==================
 RMS occupancy error at iteration   1:  0.000627 (step -0.4985 Ne1=     12.0000)
 RMS occupancy error at iteration   2:  0.000000 (step -0.5000 Ne1=     12.0000)
            Final RMS occupancy error   :  0.000000 (Ne1=     12.0000)
               Final occupancy bounds   : [  0.0000,  1.0000]
================================================================================

 1    -21.01482723744251 0.00000000000 0.05946228537 0.1000  0.000   12.00000000
      ideal mu1:      -0.584051385490
             Q0:     -21.054587736597
             G0:      -0.495869505905
   RMS gradient:       0.052693312325
    Initial Ne1:      12.00000003
      Final Ne1:      12.00000000

=================== Penalty functional idempotency correction ==================
 RMS occupancy error at iteration   1:  0.002042 (step -0.4952 Ne1=     12.0000)
 RMS occupancy error at iteration   2:  0.000005 (step -0.5000 Ne1=     12.0000)
            Final RMS occupancy error   :  0.000000 (Ne1=     12.0000)
               Final occupancy bounds   : [  0.0000,  1.0000]
================================================================================

 2    -21.05458773659661 0.01772458113 0.04799465866 0.1000  0.624   12.00000000
      ideal mu1:      -0.572289871893
 3    -21.09468317234145 0.02476905439 0.03194471405 0.0000  0.000   12.00000000
Finished density kernel iterations (   3)

           ........................................................
           | *** NGWF optimisation not converged ***              |
           | RMS NGWF gradient =    0.00997279838630              |
           | Criteria not satisfied:                              |
           | -> RMS NGWF gradient higher than set threshold.      |
           ========================================================

------------------------------- NGWF line search -------------------------------
============ Calculation of NGWF S^-1 using Hotelling algorithm ================ 
         Iteration  |  Frobenius norm and Maximum abs value    (of I-S*S_n^-1)   
               1       0.17767006E-01     0.80729845E-02
               2       0.95826220E-04     0.63615992E-04
               3       0.55290898E-08     0.40096745E-08
               4       0.14655096E-14     0.88817842E-15
================================================================================
============ Calculation of NGWF S^-1 using Hotelling algorithm ================ 
         Iteration  |  Frobenius norm and Maximum abs value    (of I-S*S_n^-1)   
               1       0.10437588E+00     0.45898296E-01
               2       0.27907477E-02     0.12758854E-02
               3       0.35382400E-05     0.19173640E-05
               4       0.63179105E-11     0.37603254E-11
               5       0.14419446E-14     0.88817842E-15
================================================================================
RMS gradient                =       0.00997279838630
Trial step length           =               0.122474
Gradient along search dir.  =         -4.37679133372
Functional at step 0        =     -21.09468317234145
Functional at step 1        =     -21.57701383271753
Functional predicted        =     -22.43204984392369
Selected quadratic step     =               0.611117
Conjugate gradients coeff.  =               0.000000
--------------------------- NGWF line search finished --------------------------
                                               

################################################################################
########################### NGWF CG iteration  002 #############################
################################################################################
****** Reciprocal space K.E. preconditioning with k_zero =  3.0000 a0^-1 *******
   Initial electron number for spin 1:      12.23300152
     Final electron number for spin 1:      12.00000000

=================== Penalty functional idempotency correction ==================
 RMS occupancy error at iteration   1:  0.011575 (step -0.4768 Ne1=     12.0000)
 RMS occupancy error at iteration   2:  0.000201 (step -0.5001 Ne1=     12.0000)
 RMS occupancy error at iteration   3:  0.000000 (step -0.5000 Ne1=     12.0000)
            Final RMS occupancy error   :  0.000000 (Ne1=     12.0000)
               Final occupancy bounds   : [  0.0000,  1.0000]
================================================================================

................................................................................
<<<<<<<<<<<<<< LNV (Original version) density kernel optimisation >>>>>>>>>>>>>>
~~~~~~~~~~~~~~~~~~~~~~~~~~~~~~~~~~~~~~~~~~~~~~~~~~~~~~~~~~~~~~~~~~~~~~~~~~~~~~~~
iter|       energy      |  rms DeltaK |  commutator |LScoef|CGcoef|      Ne    |
      ideal mu1:      -0.465967634536
             Q0:     -22.317988433704
             G0:      -0.119491579536
   RMS gradient:       0.034567554084
     Trial step:       0.500000000000
             Q1:     -22.348907659194
 Quadratic coef:       0.028826564279
 Linear coef   :      -0.059745789768
           Qmin:     -22.348945638320
Quadratic minimum step length (  0.518148722048) accepted
    Initial Ne1:      12.00000000
      Final Ne1:      12.00000000

=================== Penalty functional idempotency correction ==================
 RMS occupancy error at iteration   1:  0.004588 (step -0.4876 Ne1=     12.0000)
 RMS occupancy error at iteration   2:  0.000033 (step -0.5000 Ne1=     12.0000)
            Final RMS occupancy error   :  0.000000 (Ne1=     12.0000)
               Final occupancy bounds   : [  0.0000,  1.0000]
================================================================================

 1    -22.31798843370429 0.00000000000 0.02623935142 0.5181  0.000   12.00000000
      ideal mu1:      -0.457234810335
             Q0:     -22.349438355403
             G0:      -0.004475261711
   RMS gradient:       0.006552775640
     Trial step:       0.508993478371
             Q1:     -22.350853049316
 Quadratic coef:       0.000863185111
 Linear coef   :      -0.002277879025
           Qmin:     -22.350941142228
Quadratic minimum step length (  0.671597293011) accepted
    Initial Ne1:      11.99999994
      Final Ne1:      12.00000000

=================== Penalty functional idempotency correction ==================
 RMS occupancy error at iteration   1:  0.000613 (step -0.4987 Ne1=     12.0000)
 RMS occupancy error at iteration   2:  0.000000 (step -0.5000 Ne1=     12.0000)
            Final RMS occupancy error   :  0.000000 (Ne1=     12.0000)
               Final occupancy bounds   : [  0.0000,  1.0000]
================================================================================

 2    -22.34943835540253 0.05889988877 0.00639397121 0.6716  0.036   12.00000000
      ideal mu1:      -0.449335321578
 3    -22.35095002261392 0.00979318561 0.00172097309 0.0000  0.000   12.00000000
Finished density kernel iterations (   3)

           ........................................................
           | *** NGWF optimisation not converged ***              |
           | RMS NGWF gradient =    0.00423947833501              |
           | Criteria not satisfied:                              |
           | -> RMS NGWF gradient higher than set threshold.      |
           ========================================================

------------------------------- NGWF line search -------------------------------
============ Calculation of NGWF S^-1 using Hotelling algorithm ================ 
         Iteration  |  Frobenius norm and Maximum abs value    (of I-S*S_n^-1)   
               1       0.28959668E-01     0.18200940E-01
               2       0.40153462E-03     0.30728266E-03
               3       0.12002577E-06     0.90936446E-07
               4       0.10345681E-13     0.77715612E-14
================================================================================
============ Calculation of NGWF S^-1 using Hotelling algorithm ================ 
         Iteration  |  Frobenius norm and Maximum abs value    (of I-S*S_n^-1)   
               1       0.19167680E-01     0.13169615E-01
               2       0.20920454E-03     0.16504648E-03
               3       0.33378844E-07     0.26153204E-07
               4       0.20125909E-14     0.88817842E-15
================================================================================
RMS gradient                =       0.00423947833501
Trial step length           =               0.273581
Gradient along search dir.  =         -0.70416339122
Functional at step 0        =     -22.35095002261392
Functional at step 1        =     -22.48025171581615
Functional predicted        =     -22.49742177742166
Selected quadratic step     =               0.416016
Conjugate gradients coeff.  =               0.180714
--------------------------- NGWF line search finished --------------------------
                                               

################################################################################
########################### NGWF CG iteration  003 #############################
################################################################################
****** Reciprocal space K.E. preconditioning with k_zero =  3.0000 a0^-1 *******
   Initial electron number for spin 1:      12.15125479
     Final electron number for spin 1:      12.00000000

=================== Penalty functional idempotency correction ==================
 RMS occupancy error at iteration   1:  0.008874 (step -0.4763 Ne1=     12.0000)
 RMS occupancy error at iteration   2:  0.000160 (step -0.4999 Ne1=     12.0000)
            Final RMS occupancy error   :  0.000000 (Ne1=     12.0000)
               Final occupancy bounds   : [  0.0000,  1.0000]
================================================================================

................................................................................
<<<<<<<<<<<<<< LNV (Original version) density kernel optimisation >>>>>>>>>>>>>>
~~~~~~~~~~~~~~~~~~~~~~~~~~~~~~~~~~~~~~~~~~~~~~~~~~~~~~~~~~~~~~~~~~~~~~~~~~~~~~~~
iter|       energy      |  rms DeltaK |  commutator |LScoef|CGcoef|      Ne    |
      ideal mu1:      -0.452656922514
             Q0:     -22.499227064100
             G0:      -0.010737519439
   RMS gradient:       0.010362200268
     Trial step:       0.584669686434
             Q1:     -22.500590240187
 Quadratic coef:       0.004914726036
 Linear coef   :      -0.006277902123
           Qmin:     -22.501231858201
Quadratic minimum step length (  0.373418481391) accepted
    Initial Ne1:      11.99999958
      Final Ne1:      12.00000000

=================== Penalty functional idempotency correction ==================
 RMS occupancy error at iteration   1:  0.000192 (step -0.4996 Ne1=     12.0000)
            Final RMS occupancy error   :  0.000000 (Ne1=     12.0000)
               Final occupancy bounds   : [  0.0000,  1.0000]
================================================================================

 1    -22.49922706410012 0.00000000000 0.00980239574 0.3734  0.000   12.00000000
      ideal mu1:      -0.451281109056
             Q0:     -22.501229219381
             G0:      -0.000641569325
   RMS gradient:       0.002533200043
     Trial step:       0.467254177535
             Q1:     -22.501418831479
 Quadratic coef:       0.000110163850
 Linear coef   :      -0.000299775947
           Qmin:     -22.501433155651
Quadratic minimum step length (  0.635741958804) accepted
    Initial Ne1:      12.00000072
      Final Ne1:      12.00000000

=================== Penalty functional idempotency correction ==================
 RMS occupancy error at iteration   1:  0.000072 (step -0.4998 Ne1=     12.0000)
            Final RMS occupancy error   :  0.000000 (Ne1=     12.0000)
               Final occupancy bounds   : [  0.0000,  1.0000]
================================================================================

 2    -22.50122921938149 0.00932114256 0.00203630986 0.6357  0.060   12.00000000
      ideal mu1:      -0.453013207491
 3    -22.50143339751435 0.00501738907 0.00105607024 0.0000  0.000   12.00000000
Finished density kernel iterations (   3)

           ........................................................
           | *** NGWF optimisation not converged ***              |
           | RMS NGWF gradient =    0.00145073443681              |
           | Criteria not satisfied:                              |
           | -> RMS NGWF gradient higher than set threshold.      |
           ========================================================

------------------------------- NGWF line search -------------------------------
============ Calculation of NGWF S^-1 using Hotelling algorithm ================ 
         Iteration  |  Frobenius norm and Maximum abs value    (of I-S*S_n^-1)   
               1       0.18022946E-01     0.91619749E-02
               2       0.11749432E-03     0.86281185E-04
               3       0.95813140E-08     0.81724212E-08
               4       0.14188706E-14     0.44408921E-15
================================================================================
============ Calculation of NGWF S^-1 using Hotelling algorithm ================ 
         Iteration  |  Frobenius norm and Maximum abs value    (of I-S*S_n^-1)   
               1       0.85288669E-02     0.41419192E-02
               2       0.27450717E-04     0.19145253E-04
               3       0.49027947E-09     0.40618886E-09
               4       0.12222718E-14     0.44408921E-15
================================================================================
RMS gradient                =       0.00145073443681
Trial step length           =               0.337363
Gradient along search dir.  =         -0.09518750621
Functional at step 0        =     -22.50143339751435
Functional at step 1        =     -22.52248422466436
Functional predicted        =     -22.52473920549677
Selected quadratic step     =               0.489682
Conjugate gradients coeff.  =               0.117098
--------------------------- NGWF line search finished --------------------------
                                               

################################################################################
########################### NGWF CG iteration  004 #############################
################################################################################
****** Reciprocal space K.E. preconditioning with k_zero =  3.0000 a0^-1 *******
   Initial electron number for spin 1:      12.08209874
     Final electron number for spin 1:      12.00000000

=================== Penalty functional idempotency correction ==================
 RMS occupancy error at iteration   1:  0.004752 (step -0.4897 Ne1=     12.0000)
 RMS occupancy error at iteration   2:  0.000036 (step -0.5000 Ne1=     12.0000)
            Final RMS occupancy error   :  0.000000 (Ne1=     12.0000)
               Final occupancy bounds   : [  0.0000,  1.0000]
================================================================================

................................................................................
<<<<<<<<<<<<<< LNV (Original version) density kernel optimisation >>>>>>>>>>>>>>
~~~~~~~~~~~~~~~~~~~~~~~~~~~~~~~~~~~~~~~~~~~~~~~~~~~~~~~~~~~~~~~~~~~~~~~~~~~~~~~~
iter|       energy      |  rms DeltaK |  commutator |LScoef|CGcoef|      Ne    |
      ideal mu1:      -0.463848310675
             Q0:     -22.524545200929
             G0:      -0.003092595569
   RMS gradient:       0.005561111012
     Trial step:       0.545025766442
             Q1:     -22.525026954546
 Quadratic coef:       0.001203790653
 Linear coef   :      -0.001685544270
           Qmin:     -22.525135224509
Quadratic minimum step length (  0.381571768901) accepted
    Initial Ne1:      11.99999993
      Final Ne1:      12.00000000

=================== Penalty functional idempotency correction ==================
 RMS occupancy error at iteration   1:  0.000071 (step -0.4998 Ne1=     12.0000)
            Final RMS occupancy error   :  0.000000 (Ne1=     12.0000)
               Final occupancy bounds   : [  0.0000,  1.0000]
================================================================================

 1    -22.52454520092861 0.00000000000 0.00531602871 0.3816  0.000   12.00000000
      ideal mu1:      -0.460107202795
             Q0:     -22.525134295619
             G0:      -0.000341809475
   RMS gradient:       0.001848436018
     Trial step:       0.456033382328
             Q1:     -22.525253560800
 Quadratic coef:       0.000036611350
 Linear coef   :      -0.000155876531
           Qmin:     -22.525300210649
Quadratic minimum step length (  0.970804157351) accepted
    Initial Ne1:      12.00000004
      Final Ne1:      12.00000000

=================== Penalty functional idempotency correction ==================
 RMS occupancy error at iteration   1:  0.000090 (step -0.4998 Ne1=     12.0000)
            Final RMS occupancy error   :  0.000000 (Ne1=     12.0000)
               Final occupancy bounds   : [  0.0000,  1.0000]
================================================================================

 2    -22.52513429561872 0.00547451951 0.00163627654 0.9708  0.110   12.00000000
      ideal mu1:      -0.459094335967
 3    -22.52530194706245 0.00492179128 0.00079193327 0.0000  0.000   12.00000000
Finished density kernel iterations (   3)

           ........................................................
           | *** NGWF optimisation not converged ***              |
           | RMS NGWF gradient =    0.00066749933777              |
           | Criteria not satisfied:                              |
           | -> RMS NGWF gradient higher than set threshold.      |
           ========================================================

------------------------------- NGWF line search -------------------------------
============ Calculation of NGWF S^-1 using Hotelling algorithm ================ 
         Iteration  |  Frobenius norm and Maximum abs value    (of I-S*S_n^-1)   
               1       0.12570784E-01     0.47429136E-02
               2       0.57353849E-04     0.30755871E-04
               3       0.17058734E-08     0.10937546E-08
               4       0.19353998E-14     0.13322676E-14
================================================================================
============ Calculation of NGWF S^-1 using Hotelling algorithm ================ 
         Iteration  |  Frobenius norm and Maximum abs value    (of I-S*S_n^-1)   
               1       0.39638820E-02     0.14162459E-02
               2       0.55920890E-05     0.27224526E-05
               3       0.14669861E-10     0.83244522E-11
               4       0.14324760E-14     0.66613381E-15
================================================================================
RMS gradient                =       0.00066749933777
Trial step length           =               0.406449
Gradient along search dir.  =         -0.02002872961
Functional at step 0        =     -22.52530194706245
Functional at step 1        =     -22.53038093362176
Functional predicted        =     -22.53071323340313
Selected quadratic step     =               0.540352
Conjugate gradients coeff.  =               0.211702
--------------------------- NGWF line search finished --------------------------
                                               

################################################################################
########################### NGWF CG iteration  005 #############################
################################################################################
****** Reciprocal space K.E. preconditioning with k_zero =  3.0000 a0^-1 *******
   Initial electron number for spin 1:      12.02684225
     Final electron number for spin 1:      12.00000000

=================== Penalty functional idempotency correction ==================
 RMS occupancy error at iteration   1:  0.001790 (step -0.4960 Ne1=     12.0000)
 RMS occupancy error at iteration   2:  0.000005 (step -0.5000 Ne1=     12.0000)
            Final RMS occupancy error   :  0.000000 (Ne1=     12.0000)
               Final occupancy bounds   : [  0.0000,  1.0000]
================================================================================

................................................................................
<<<<<<<<<<<<<< LNV (Original version) density kernel optimisation >>>>>>>>>>>>>>
~~~~~~~~~~~~~~~~~~~~~~~~~~~~~~~~~~~~~~~~~~~~~~~~~~~~~~~~~~~~~~~~~~~~~~~~~~~~~~~~
iter|       energy      |  rms DeltaK |  commutator |LScoef|CGcoef|      Ne    |
      ideal mu1:      -0.461247601639
             Q0:     -22.530680444393
             G0:      -0.000401979827
   RMS gradient:       0.002004943458
     Trial step:       0.665371402643
             Q1:     -22.530724462615
 Quadratic coef:       0.000223447660
 Linear coef   :      -0.000267465881
           Qmin:     -22.530760483269
Quadratic minimum step length (  0.398223343597) accepted
    Initial Ne1:      12.00000000
      Final Ne1:      12.00000000

=================== Penalty functional idempotency correction ==================
 RMS occupancy error at iteration   1:  0.000010 (step -0.5000 Ne1=     12.0000)
            Final RMS occupancy error   :  0.000000 (Ne1=     12.0000)
               Final occupancy bounds   : [  0.0000,  1.0000]
================================================================================

 1    -22.53068044439324 0.00000000000 0.00194664822 0.3982  0.000   12.00000000
      ideal mu1:      -0.460012806945
             Q0:     -22.530760893405
             G0:      -0.000054428083
   RMS gradient:       0.000739681418
     Trial step:       0.514748894797
             Q1:     -22.530782018736
 Quadratic coef:       0.000006891464
 Linear coef   :      -0.000028016795
           Qmin:     -22.530789368514
Quadratic minimum step length (  1.046338881746) accepted
    Initial Ne1:      11.99999998
      Final Ne1:      12.00000000

=================== Penalty functional idempotency correction ==================
 RMS occupancy error at iteration   1:  0.000017 (step -0.5000 Ne1=     12.0000)
            Final RMS occupancy error   :  0.000000 (Ne1=     12.0000)
               Final occupancy bounds   : [  0.0000,  1.0000]
================================================================================

 2    -22.53076089340478 0.00197222504 0.00062306209 1.0463  0.136   12.00000000
      ideal mu1:      -0.459673961957
 3    -22.53078893576922 0.00221573270 0.00023806123 0.0000  0.000   12.00000000
Finished density kernel iterations (   3)

           ........................................................
           | *** NGWF optimisation not converged ***              |
           | RMS NGWF gradient =    0.00037696960779              |
           | Criteria not satisfied:                              |
           | -> RMS NGWF gradient higher than set threshold.      |
           ========================================================

================================================================================
           ---------------- ENERGY COMPONENTS (Eh) ----------------
           | Kinetic                    :       14.48494629889167 |
           | Pseudopotential (local)    :      -83.41529953069544 |
           | Pseudopotential (non-local):        3.14081657607466 |
           | Hartree                    :       33.71985641279221 |
           | Exchange-correlation       :       -5.47537129362929 |
           | Ion-ion (open BC)          :       15.01426260079697 |
           | Total                      :      -22.53078893576922 |
           --------------------------------------------------------
           ------ LOCAL ENERGY COMPONENTS FROM MATRIX TRACES ------
           | Pseudopotential (local)    :      -83.41529953069606 |
           | Hartree                    :       33.71985641279220 |
           --------------------------------------------------------
           Integrated density           :       11.99999999999992
           Integrated density tr(KS)    :       12.00000000000000
================================================================================


------------------------------- NGWF line search -------------------------------
============ Calculation of NGWF S^-1 using Hotelling algorithm ================ 
         Iteration  |  Frobenius norm and Maximum abs value    (of I-S*S_n^-1)   
               1       0.13572617E-01     0.54601573E-02
               2       0.68004243E-04     0.36878029E-04
               3       0.28231500E-08     0.15735807E-08
               4       0.14620274E-14     0.66613381E-15
================================================================================
============ Calculation of NGWF S^-1 using Hotelling algorithm ================ 
         Iteration  |  Frobenius norm and Maximum abs value    (of I-S*S_n^-1)   
               1       0.31988145E-02     0.12697614E-02
               2       0.36779364E-05     0.19427323E-05
               3       0.74874578E-11     0.42382764E-11
               4       0.10965450E-14     0.44408921E-15
================================================================================
RMS gradient                =       0.00037696960779
Trial step length           =               0.468642
Gradient along search dir.  =         -0.00632943507
Functional at step 0        =     -22.53078893576922
Functional at step 1        =     -22.53256866165198
Functional predicted        =     -22.53264280700180
Selected quadratic step     =               0.585794
Conjugate gradients coeff.  =               0.318941
--------------------------- NGWF line search finished --------------------------
                                               

################################################################################
########################### NGWF CG iteration  006 #############################
################################################################################
****** Reciprocal space K.E. preconditioning with k_zero =  3.0000 a0^-1 *******
   Initial electron number for spin 1:      12.00557285
     Final electron number for spin 1:      12.00000000

=================== Penalty functional idempotency correction ==================
 RMS occupancy error at iteration   1:  0.000612 (step -0.4989 Ne1=     12.0000)
 RMS occupancy error at iteration   2:  0.000001 (step -0.5000 Ne1=     12.0000)
            Final RMS occupancy error   :  0.000000 (Ne1=     12.0000)
               Final occupancy bounds   : [  0.0000,  1.0000]
================================================================================

................................................................................
<<<<<<<<<<<<<< LNV (Original version) density kernel optimisation >>>>>>>>>>>>>>
~~~~~~~~~~~~~~~~~~~~~~~~~~~~~~~~~~~~~~~~~~~~~~~~~~~~~~~~~~~~~~~~~~~~~~~~~~~~~~~~
iter|       energy      |  rms DeltaK |  commutator |LScoef|CGcoef|      Ne    |
      ideal mu1:      -0.462534377595
             Q0:     -22.532645474681
             G0:      -0.000325855620
   RMS gradient:       0.001805147142
     Trial step:       0.733894940003
             Q1:     -22.532645763222
 Quadratic coef:       0.000238855250
 Linear coef   :      -0.000239143791
           Qmin:     -22.532705332851
Quadratic minimum step length (  0.367390748829) accepted
    Initial Ne1:      12.00000000
      Final Ne1:      12.00000000

=================== Penalty functional idempotency correction ==================
 RMS occupancy error at iteration   1:  0.000006 (step -0.5000 Ne1=     12.0000)
            Final RMS occupancy error   :  0.000000 (Ne1=     12.0000)
               Final occupancy bounds   : [  0.0000,  1.0000]
================================================================================

 1    -22.53264547468109 0.00000000000 0.00163032813 0.3674  0.000   12.00000000
      ideal mu1:      -0.461192038772
             Q0:     -22.532705037512
             G0:      -0.000017284434
   RMS gradient:       0.000415875099
     Trial step:       0.519255439615
             Q1:     -22.532710316937
 Quadratic coef:       0.000003695611
 Linear coef   :      -0.000008975036
           Qmin:     -22.532710486629
Quadratic minimum step length (  0.630523097454) accepted
    Initial Ne1:      12.00000000
      Final Ne1:      12.00000000

=================== Penalty functional idempotency correction ==================
 RMS occupancy error at iteration   1:  0.000002 (step -0.5000 Ne1=     12.0000)
            Final RMS occupancy error   :  0.000000 (Ne1=     12.0000)
               Final occupancy bounds   : [  0.0000,  1.0000]
================================================================================

 2    -22.53270503751163 0.00184075231 0.00037410203 0.6305  0.053   12.00000000
      ideal mu1:      -0.460815519543
 3    -22.53271059197824 0.00070014823 0.00011996558 0.0000  0.000   12.00000000
Finished density kernel iterations (   3)

           ........................................................
           | *** NGWF optimisation not converged ***              |
           | RMS NGWF gradient =    0.00024025929390              |
           | Criteria not satisfied:                              |
           | -> RMS NGWF gradient higher than set threshold.      |
           ========================================================

------------------------------- NGWF line search -------------------------------
============ Calculation of NGWF S^-1 using Hotelling algorithm ================ 
         Iteration  |  Frobenius norm and Maximum abs value    (of I-S*S_n^-1)   
               1       0.14251257E-01     0.45781795E-02
               2       0.71360633E-04     0.32144651E-04
               3       0.25635350E-08     0.13061593E-08
               4       0.17319890E-14     0.88817842E-15
================================================================================
============ Calculation of NGWF S^-1 using Hotelling algorithm ================ 
         Iteration  |  Frobenius norm and Maximum abs value    (of I-S*S_n^-1)   
               1       0.17506188E-03     0.54638992E-04
               2       0.11179001E-07     0.45660130E-08
               3       0.19065968E-14     0.66613381E-15
================================================================================
RMS gradient                =       0.00024025929390
Trial step length           =               0.523954
Gradient along search dir.  =         -0.00263703337
Functional at step 0        =     -22.53271059197824
Functional at step 1        =     -22.53341004968878
Functional predicted        =     -22.53341015849583
Selected quadratic step     =               0.530571
Conjugate gradients coeff.  =               0.406207
--------------------------- NGWF line search finished --------------------------
                                               

################################################################################
########################### NGWF CG iteration  007 #############################
################################################################################
****** Reciprocal space K.E. preconditioning with k_zero =  3.0000 a0^-1 *******
   Initial electron number for spin 1:      12.00278942
     Final electron number for spin 1:      12.00000000

=================== Penalty functional idempotency correction ==================
 RMS occupancy error at iteration   1:  0.000357 (step -0.4993 Ne1=     12.0000)
 RMS occupancy error at iteration   2:  0.000000 (step -0.5000 Ne1=     12.0000)
            Final RMS occupancy error   :  0.000000 (Ne1=     12.0000)
               Final occupancy bounds   : [  0.0000,  1.0000]
================================================================================

................................................................................
<<<<<<<<<<<<<< LNV (Original version) density kernel optimisation >>>>>>>>>>>>>>
~~~~~~~~~~~~~~~~~~~~~~~~~~~~~~~~~~~~~~~~~~~~~~~~~~~~~~~~~~~~~~~~~~~~~~~~~~~~~~~~
iter|       energy      |  rms DeltaK |  commutator |LScoef|CGcoef|      Ne    |
      ideal mu1:      -0.463912955435
             Q0:     -22.533411107713
             G0:      -0.000162835021
   RMS gradient:       0.001276068264
     Trial step:       0.572191006706
             Q1:     -22.533434086689
 Quadratic coef:       0.000070193759
 Linear coef   :      -0.000093172735
           Qmin:     -22.533442026269
Quadratic minimum step length (  0.379753143537) accepted
    Initial Ne1:      12.00000000
      Final Ne1:      12.00000000

=================== Penalty functional idempotency correction ==================
 RMS occupancy error at iteration   1:  0.000003 (step -0.5000 Ne1=     12.0000)
            Final RMS occupancy error   :  0.000000 (Ne1=     12.0000)
               Final occupancy bounds   : [  0.0000,  1.0000]
================================================================================

 1    -22.53341110771296 0.00000000000 0.00113951819 0.3798  0.000   12.00000000
      ideal mu1:      -0.462820300361
             Q0:     -22.533442011407
             G0:      -0.000010341352
   RMS gradient:       0.000321579961
     Trial step:       0.466145185002
             Q1:     -22.533444772268
 Quadratic coef:       0.000002059711
 Linear coef   :      -0.000004820572
           Qmin:     -22.533444831938
Quadratic minimum step length (  0.545485726763) accepted
    Initial Ne1:      12.00000000
      Final Ne1:      12.00000000

=================== Penalty functional idempotency correction ==================
 RMS occupancy error at iteration   1:  0.000001 (step -0.5000 Ne1=     12.0000)
            Final RMS occupancy error   :  0.000000 (Ne1=     12.0000)
               Final occupancy bounds   : [  0.0000,  1.0000]
================================================================================

 2    -22.53344201140744 0.00136024519 0.00028521709 0.5455  0.064   12.00000000
      ideal mu1:      -0.462529840893
 3    -22.53344491382240 0.00047134973 0.00007905969 0.0000  0.000   12.00000000
Finished density kernel iterations (   3)

           ........................................................
           | *** NGWF optimisation not converged ***              |
           | RMS NGWF gradient =    0.00014911798638              |
           | Criteria not satisfied:                              |
           | -> RMS NGWF gradient higher than set threshold.      |
           ========================================================

------------------------------- NGWF line search -------------------------------
============ Calculation of NGWF S^-1 using Hotelling algorithm ================ 
         Iteration  |  Frobenius norm and Maximum abs value    (of I-S*S_n^-1)   
               1       0.69424147E-02     0.23608012E-02
               2       0.17117574E-04     0.67518364E-05
               3       0.14345246E-09     0.52198468E-10
               4       0.17621301E-14     0.88817842E-15
================================================================================
============ Calculation of NGWF S^-1 using Hotelling algorithm ================ 
         Iteration  |  Frobenius norm and Maximum abs value    (of I-S*S_n^-1)   
               1       0.20616005E-03     0.68946207E-04
               2       0.15510923E-07     0.64616863E-08
               3       0.17831011E-14     0.88817842E-15
================================================================================
RMS gradient                =       0.00014911798638
Trial step length           =               0.527252
Gradient along search dir.  =         -0.00097854730
Functional at step 0        =     -22.53344491382240
Functional at step 1        =     -22.53371036139536
Functional predicted        =     -22.53371058458070
Selected quadratic step     =               0.542990
Conjugate gradients coeff.  =               0.000000
--------------------------- NGWF line search finished --------------------------
                                               

################################################################################
########################### NGWF CG iteration  008 #############################
################################################################################
****** Reciprocal space K.E. preconditioning with k_zero =  3.0000 a0^-1 *******
   Initial electron number for spin 1:      12.00290835
     Final electron number for spin 1:      12.00000000

=================== Penalty functional idempotency correction ==================
 RMS occupancy error at iteration   1:  0.000284 (step -0.4999 Ne1=     12.0000)
 RMS occupancy error at iteration   2:  0.000000 (step -0.5000 Ne1=     12.0000)
            Final RMS occupancy error   :  0.000000 (Ne1=     12.0000)
               Final occupancy bounds   : [  0.0000,  1.0000]
================================================================================

................................................................................
<<<<<<<<<<<<<< LNV (Original version) density kernel optimisation >>>>>>>>>>>>>>
~~~~~~~~~~~~~~~~~~~~~~~~~~~~~~~~~~~~~~~~~~~~~~~~~~~~~~~~~~~~~~~~~~~~~~~~~~~~~~~~
iter|       energy      |  rms DeltaK |  commutator |LScoef|CGcoef|      Ne    |
      ideal mu1:      -0.463651060975
             Q0:     -22.533710438478
             G0:      -0.000010739464
   RMS gradient:       0.000327711214
     Trial step:       0.504257419398
             Q1:     -22.533712614215
 Quadratic coef:       0.000003239718
 Linear coef   :      -0.000005415454
           Qmin:     -22.533712701572
Quadratic minimum step length (  0.421453858244) accepted
    Initial Ne1:      12.00000000
      Final Ne1:      12.00000000

=================== Penalty functional idempotency correction ==================
 RMS occupancy error at iteration   1:  0.000000 (step -0.5000 Ne1=     12.0000)
            Final RMS occupancy error   :  0.000000 (Ne1=     12.0000)
               Final occupancy bounds   : [  0.0000,  1.0000]
================================================================================

 1    -22.53371043847811 0.00000000000 0.00028037895 0.4215  0.000   12.00000000
      ideal mu1:      -0.463245559408
             Q0:     -22.533712634644
             G0:      -0.000001235633
   RMS gradient:       0.000107537704
     Trial step:       0.461000254830
             Q1:     -22.533712991119
 Quadratic coef:       0.000000213153
 Linear coef   :      -0.000000569627
           Qmin:     -22.533713015211
Quadratic minimum step length (  0.615986319321) accepted
    Initial Ne1:      12.00000000
      Final Ne1:      12.00000000

=================== Penalty functional idempotency correction ==================
 RMS occupancy error at iteration   1:  0.000000 (step -0.5000 Ne1=     12.0000)
            Final RMS occupancy error   :  0.000000 (Ne1=     12.0000)
               Final occupancy bounds   : [  0.0000,  1.0000]
================================================================================

 2    -22.53371263464441 0.00039507987 0.00008921530 0.6160  0.108   12.00000000
      ideal mu1:      -0.463115435616
 3    -22.53371301521668 0.00020106813 0.00004077529 0.0000  0.000   12.00000000
Finished density kernel iterations (   3)

           ........................................................
           | *** NGWF optimisation not converged ***              |
           | RMS NGWF gradient =    0.00007641330113              |
           | Criteria not satisfied:                              |
           | -> RMS NGWF gradient higher than set threshold.      |
           ========================================================

------------------------------- NGWF line search -------------------------------
============ Calculation of NGWF S^-1 using Hotelling algorithm ================ 
         Iteration  |  Frobenius norm and Maximum abs value    (of I-S*S_n^-1)   
               1       0.86189270E-02     0.28612879E-02
               2       0.27736551E-04     0.11159165E-04
               3       0.39471354E-09     0.14553669E-09
               4       0.13085586E-14     0.44408921E-15
================================================================================
============ Calculation of NGWF S^-1 using Hotelling algorithm ================ 
         Iteration  |  Frobenius norm and Maximum abs value    (of I-S*S_n^-1)   
               1       0.13884534E-03     0.46803693E-04
               2       0.74178811E-08     0.31492522E-08
               3       0.13036550E-14     0.44408921E-15
================================================================================
RMS gradient                =       0.00007641330113
[...]
                                               

################################################################################
########################### NGWF CG iteration  013 #############################
################################################################################
****** Reciprocal space K.E. preconditioning with k_zero =  3.0000 a0^-1 *******
   Initial electron number for spin 1:      12.00000939
     Final electron number for spin 1:      12.00000000

=================== Penalty functional idempotency correction ==================
 RMS occupancy error at iteration   1:  0.000001 (step -0.5000 Ne1=     12.0000)
            Final RMS occupancy error   :  0.000000 (Ne1=     12.0000)
               Final occupancy bounds   : [  0.0000,  1.0000]
================================================================================

................................................................................
<<<<<<<<<<<<<< LNV (Original version) density kernel optimisation >>>>>>>>>>>>>>
~~~~~~~~~~~~~~~~~~~~~~~~~~~~~~~~~~~~~~~~~~~~~~~~~~~~~~~~~~~~~~~~~~~~~~~~~~~~~~~~
iter|       energy      |  rms DeltaK |  commutator |LScoef|CGcoef|      Ne    |
      ideal mu1:      -0.464246738479
             Q0:     -22.533798439654
             G0:      -0.000000012032
   RMS gradient:       0.000010969107
     Trial step:       0.802044036252
             Q1:     -22.533798441586
 Quadratic coef:       0.000000007718
 Linear coef   :      -0.000000009650
           Qmin:     -22.533798442671
Quadratic minimum step length (  0.501429369208) accepted
    Initial Ne1:      12.00000000
      Final Ne1:      12.00000000

=================== Penalty functional idempotency correction ==================
 RMS occupancy error at iteration   1:  0.000000 (step -0.5000 Ne1=     12.0000)
            Final RMS occupancy error   :  0.000000 (Ne1=     12.0000)
               Final occupancy bounds   : [  0.0000,  1.0000]
================================================================================

 1    -22.53379843965387 0.00000000000 0.00000961146 0.5014  0.000   12.00000000
      ideal mu1:      -0.464247176479
             Q0:     -22.533798442671
             G0:      -0.000000003894
   RMS gradient:       0.000006240293
     Trial step:       0.634167513497
             Q1:     -22.533798444612
 Quadratic coef:       0.000000000528
 Linear coef   :      -0.000000002469
           Qmin:     -22.533798445558
Quadratic minimum step length (  1.482762286054) accepted
    Initial Ne1:      12.00000000
      Final Ne1:      12.00000000

=================== Penalty functional idempotency correction ==================
 RMS occupancy error at iteration   1:  0.000000 (step -0.5000 Ne1=     12.0000)
            Final RMS occupancy error   :  0.000000 (Ne1=     12.0000)
               Final occupancy bounds   : [  0.0000,  1.0000]
================================================================================

 2    -22.53379844267070 0.00001426353 0.00000521669 1.4828  0.324   12.00000000
      ideal mu1:      -0.464258479056
 3    -22.53379844555782 0.00002725760 0.00000611889 0.0000  0.000   12.00000000
Finished density kernel iterations (   3)

           ........................................................
           | *** NGWF optimisation not converged ***              |
           | RMS NGWF gradient =    0.00000297313116              |
           | Criteria not satisfied:                              |
           | -> RMS NGWF gradient higher than set threshold.      |
           ========================================================

------------------------------- NGWF line search -------------------------------
WARNING: slope along search direction is positive:    0.180788E-06
         Resetting conjugate gradients!
WARNING: slope along search direction is still positive.
         Reversing search direction!!
============ Calculation of NGWF S^-1 using Hotelling algorithm ================ 
         Iteration  |  Frobenius norm and Maximum abs value    (of I-S*S_n^-1)   
               1       0.14888373E-03     0.48835507E-04
               2       0.86838929E-08     0.32347320E-08
               3       0.16099777E-14     0.88817842E-15
================================================================================
============ Calculation of NGWF S^-1 using Hotelling algorithm ================ 
         Iteration  |  Frobenius norm and Maximum abs value    (of I-S*S_n^-1)   
               1       0.97046051E-04     0.31829213E-04
               2       0.36894574E-08     0.13738743E-08
               3       0.16637091E-14     0.88817842E-15
================================================================================
RMS gradient                =       0.00000297313116
Trial step length           =               0.012916
Gradient along search dir.  =         -0.00000038900
Functional at step 0        =     -22.53379844555782
Functional at step 1        =     -22.53379844336716
Functional predicted        =     -22.53379844643252
Selected quadratic step     =               0.004497
Conjugate gradients coeff.  =              -1.205911
--------------------------- NGWF line search finished --------------------------
                                               

################################################################################
########################### NGWF CG iteration  014 #############################
################################################################################
****** Reciprocal space K.E. preconditioning with k_zero =  3.0000 a0^-1 *******
   Initial electron number for spin 1:      11.99998865
     Final electron number for spin 1:      12.00000000

=================== Penalty functional idempotency correction ==================
 RMS occupancy error at iteration   1:  0.000002 (step -0.5000 Ne1=     12.0000)
            Final RMS occupancy error   :  0.000000 (Ne1=     12.0000)
               Final occupancy bounds   : [  0.0000,  1.0000]
================================================================================

................................................................................
<<<<<<<<<<<<<< LNV (Original version) density kernel optimisation >>>>>>>>>>>>>>
~~~~~~~~~~~~~~~~~~~~~~~~~~~~~~~~~~~~~~~~~~~~~~~~~~~~~~~~~~~~~~~~~~~~~~~~~~~~~~~~
iter|       energy      |  rms DeltaK |  commutator |LScoef|CGcoef|      Ne    |
      ideal mu1:      -0.464252304049
             Q0:     -22.533798446435
             G0:      -0.000000003021
   RMS gradient:       0.000005496451
     Trial step:       0.969700815744
             Q1:     -22.533798447559
 Quadratic coef:       0.000000001805
 Linear coef   :      -0.000000002930
           Qmin:     -22.533798447623
Quadratic minimum step length (  0.786890920355) accepted
    Initial Ne1:      12.00000000
      Final Ne1:      12.00000000

=================== Penalty functional idempotency correction ==================
 RMS occupancy error at iteration   1:  0.000000 (step -0.5000 Ne1=     12.0000)
            Final RMS occupancy error   :  0.000000 (Ne1=     12.0000)
               Final occupancy bounds   : [  0.0000,  1.0000]
================================================================================

 1    -22.53379844643467 0.00000000000 0.00000459643 0.7869  0.000   12.00000000
      ideal mu1:      -0.464245440669
             Q0:     -22.533798447624
             G0:      -0.000000001039
   RMS gradient:       0.000003222386
     Trial step:       0.873526626595
             Q1:     -22.533798448353
 Quadratic coef:       0.000000000178
 Linear coef   :      -0.000000000907
           Qmin:     -22.533798448782
Quadratic minimum step length (  2.230787395643) accepted
    Initial Ne1:      12.00000000
      Final Ne1:      12.00000000

=================== Penalty functional idempotency correction ==================
 RMS occupancy error at iteration   1:  0.000000 (step -0.5000 Ne1=     12.0000)
            Final RMS occupancy error   :  0.000000 (Ne1=     12.0000)
               Final occupancy bounds   : [  0.0000,  1.0000]
================================================================================

 2    -22.53379844762355 0.00001142221 0.00000263677 2.2308  0.344   12.00000000
      ideal mu1:      -0.464248529185
             Q0:     -22.533798448783
             G0:      -0.000000001660
   RMS gradient:       0.000004073187
     Trial step:       1.395941326978
             Q1:     -22.533798448429
 Quadratic coef:       0.000000002671
 Linear coef   :      -0.000000002318
           Qmin:     -22.533798449285
Quadratic minimum step length (  0.605682589624) accepted
    Initial Ne1:      12.00000000
      Final Ne1:      12.00000000

=================== Penalty functional idempotency correction ==================
 RMS occupancy error at iteration   1:  0.000000 (step -0.5000 Ne1=     12.0000)
            Final RMS occupancy error   :  0.000000 (Ne1=     12.0000)
               Final occupancy bounds   : [  0.0000,  1.0000]
================================================================================

 3    -22.53379844878263 0.00002142293 0.00000371309 0.6057  1.598   12.00000000
      ideal mu1:      -0.464248050033
 4    -22.53379844928542 0.00001117991 0.00000160174 0.0000  0.000   12.00000000
Finished density kernel iterations (   4)

           ........................................................
           | *** NGWF optimisation not converged ***              |
           | RMS NGWF gradient =    0.00000283812710              |
           | Criteria not satisfied:                              |
           | -> RMS NGWF gradient higher than set threshold.      |
           ========================================================

------------------------------- NGWF line search -------------------------------
============ Calculation of NGWF S^-1 using Hotelling algorithm ================ 
         Iteration  |  Frobenius norm and Maximum abs value    (of I-S*S_n^-1)   
               1       0.16787009E-03     0.55118130E-04
               2       0.11042980E-07     0.41218140E-08
               3       0.16155269E-14     0.55511151E-15
================================================================================
============ Calculation of NGWF S^-1 using Hotelling algorithm ================ 
         Iteration  |  Frobenius norm and Maximum abs value    (of I-S*S_n^-1)   
               1       0.14010029E-03     0.46001893E-04
               2       0.76920015E-08     0.28714144E-08
               3       0.16757622E-14     0.88817842E-15
================================================================================
RMS gradient                =       0.00000283812710
Trial step length           =               0.007621
Gradient along search dir.  =         -0.00000040114
Functional at step 0        =     -22.53379844928542
Functional at step 1        =     -22.53379844310241
Functional predicted        =     -22.53379844953829
Selected quadratic step     =               0.001261
Conjugate gradients coeff.  =              -0.911246
--------------------------- NGWF line search finished --------------------------
                                               

################################################################################
########################### NGWF CG iteration  015 #############################
################################################################################
****** Reciprocal space K.E. preconditioning with k_zero =  3.0000 a0^-1 *******
   Initial electron number for spin 1:      12.00000608
     Final electron number for spin 1:      12.00000000

=================== Penalty functional idempotency correction ==================
 RMS occupancy error at iteration   1:  0.000001 (step -0.5000 Ne1=     12.0000)
            Final RMS occupancy error   :  0.000000 (Ne1=     12.0000)
               Final occupancy bounds   : [  0.0000,  1.0000]
================================================================================

................................................................................
<<<<<<<<<<<<<< LNV (Original version) density kernel optimisation >>>>>>>>>>>>>>
~~~~~~~~~~~~~~~~~~~~~~~~~~~~~~~~~~~~~~~~~~~~~~~~~~~~~~~~~~~~~~~~~~~~~~~~~~~~~~~~
iter|       energy      |  rms DeltaK |  commutator |LScoef|CGcoef|      Ne    |
      ideal mu1:      -0.464251371334
             Q0:     -22.533798449539
             G0:      -0.000000000500
   RMS gradient:       0.000002236532
     Trial step:       0.919509302774
             Q1:     -22.533798449734
 Quadratic coef:       0.000000000265
 Linear coef   :      -0.000000000460
           Qmin:     -22.533798449739
Quadratic minimum step length (  0.798225778363) accepted
    Initial Ne1:      12.00000000
      Final Ne1:      12.00000000

=================== Penalty functional idempotency correction ==================
 RMS occupancy error at iteration   1:  0.000000 (step -0.5000 Ne1=     12.0000)
            Final RMS occupancy error   :  0.000000 (Ne1=     12.0000)
               Final occupancy bounds   : [  0.0000,  1.0000]
================================================================================

 1    -22.53379844953895 0.00000000000 0.00000185062 0.7982  0.000   12.00000000
      ideal mu1:      -0.464248780879
             Q0:     -22.533798449738
             G0:      -0.000000000079
   RMS gradient:       0.000000889548
     Trial step:       0.856724009771
             Q1:     -22.533798449769
 Quadratic coef:       0.000000000038
 Linear coef   :      -0.000000000068
           Qmin:     -22.533798449769
Quadratic minimum step length (  0.770418018370) accepted
    Initial Ne1:      12.00000000
      Final Ne1:      12.00000000

=================== Penalty functional idempotency correction ==================
 RMS occupancy error at iteration   1:  0.000000 (step -0.5000 Ne1=     12.0000)
            Final RMS occupancy error   :  0.000000 (Ne1=     12.0000)
               Final occupancy bounds   : [  0.0000,  1.0000]
================================================================================

 2    -22.53379844973844 0.00000504455 0.00000057965 0.7704  0.158   12.00000000
      ideal mu1:      -0.464248991526
             Q0:     -22.533798449769
             G0:      -0.000000000009
   RMS gradient:       0.000000292973
     Trial step:       0.812425759007
             Q1:     -22.533798449772
 Quadratic coef:       0.000000000004
 Linear coef   :      -0.000000000007
           Qmin:     -22.533798449772
Quadratic minimum step length (  0.793675598837) accepted
    Initial Ne1:      12.00000000
      Final Ne1:      12.00000000

=================== Penalty functional idempotency correction ==================
 RMS occupancy error at iteration   1:  0.000000 (step -0.5000 Ne1=     12.0000)
            Final RMS occupancy error   :  0.000000 (Ne1=     12.0000)
               Final occupancy bounds   : [  0.0000,  1.0000]
================================================================================

 3    -22.53379844976870 0.00000244049 0.00000023233 0.7937  0.108   12.00000000
      ideal mu1:      -0.464248875585
             Q0:     -22.533798449772
             G0:      -0.000000000008
   RMS gradient:       0.000000272911
     Trial step:       0.802995953159
             Q1:     -22.533798449777
 Quadratic coef:       0.000000000002
 Linear coef   :      -0.000000000006
           Qmin:     -22.533798449778
Quadratic minimum step length (  1.506562234382) accepted
    Initial Ne1:      12.00000000
      Final Ne1:      12.00000000

=================== Penalty functional idempotency correction ==================
 RMS occupancy error at iteration   1:  0.000000 (step -0.5000 Ne1=     12.0000)
            Final RMS occupancy error   :  0.000000 (Ne1=     12.0000)
               Final occupancy bounds   : [  0.0000,  1.0000]
================================================================================

 4    -22.53379844977205 0.00000069260 0.00000022679 1.5066  0.868   12.00000000
      ideal mu1:      -0.464249099569
 5    -22.53379844977744 0.00000152911 0.00000019508 0.0000  0.000   12.00000000
Finished density kernel iterations (   5)

           ........................................................
           | *** NGWF optimisation converged ***                  |
           | RMS NGWF gradient =    0.00000143207139              |
           | Criteria satisfied:                                  |
           | -> RMS NGWF gradient lower than set threshold.       |
           ========================================================

================================================================================
           ---------------- ENERGY COMPONENTS (Eh) ----------------
           | Kinetic                    :       14.47329717938736 |
           | Pseudopotential (local)    :      -83.36901334403710 |
           | Pseudopotential (non-local):        3.14943970865678 |
           | Hartree                    :       33.66541372379130 |
           | Exchange-correlation       :       -5.46719831837274 |
           | Ion-ion (open BC)          :       15.01426260079697 |
           | Total                      :      -22.53379844977743 |
           --------------------------------------------------------
           ------ LOCAL ENERGY COMPONENTS FROM MATRIX TRACES ------
           | Pseudopotential (local)    :      -83.36901334403763 |
           | Hartree                    :       33.66541372379126 |
           --------------------------------------------------------
           Integrated density           :       12.00000000000006
           Integrated density tr(KS)    :       12.00000000000000
================================================================================


                    <<<<< CALCULATION SUMMARY >>>>>
|ITER|    RMS GRADIENT   |     TOTAL ENERGY    |   step   |     Epredicted      
   1     0.00997279838630    -21.09468317234145   0.611117    -22.43204984392369
   2     0.00423947833501    -22.35095002261392   0.416016    -22.49742177742166
   3     0.00145073443681    -22.50143339751435   0.489682    -22.52473920549677
   4     0.00066749933777    -22.52530194706245   0.540352    -22.53071323340313
   5     0.00037696960779    -22.53078893576922   0.585794    -22.53264280700180
   6     0.00024025929390    -22.53271059197824   0.530571    -22.53341015849583
   7     0.00014911798638    -22.53344491382240   0.542990    -22.53371058458070
   8     0.00007641330113    -22.53371301521668   0.526420    -22.53378116092121
   9     0.00003755137296    -22.53378655675271   0.297528    -22.53379653730488
  10     0.00001197864727    -22.53379800040058   0.080182    -22.53379825355301
  11     0.00000796859153    -22.53379840608583   0.015317    -22.53379842578439
  12     0.00000270742527    -22.53379843904700   0.003190    -22.53379843965278
  13     0.00000297313116    -22.53379844555782   0.004497    -22.53379844643252
  14     0.00000283812710    -22.53379844928542   0.001261    -22.53379844953829
  15     0.00000143207139    -22.53379844977744  <-- CG                         
 
<QC>        [NGWF iterations]:       15
<QC>           [total_energy]:      -22.53379845
<QC>                     [F0]:      -22.53379845
<QC>                     [F1]:      -22.53379844
<QC>                     [F2]:        0.00000000
<QC>   [predicted_functional]:      -22.53379845
<QC>           [rms_gradient]:        0.000001432071
<QC>                 [G_init]:       -0.000000401136
<QC>        [quadratic_coeff]:        0.001261
<QC>            [cubic_coeff]:        0.000000
<QC>               [cg_coeff]:       -0.911246
<QC>           [trial_length]:        0.007621

------------------------------ TIMING INFORMATION ------------------------------
TOTAL TIME:     439.884s on     4 node(s)

Job completed: 28-05-2011 02:44 (+0100)

