Defaulting to ethernet
No MPI process pinning
Starting MPD ring...
PBS has allocated the following nodes:
cx1-8-5-1
cx1-8-5-1
cx1-8-5-1
cx1-8-5-1
---
mpiexec.intel -genv I_MPI_DEVICE ssm -genv I_MPI_DEBUG 0 -genv I_MPI_PIN no -genv I_MPI_PIN_MODE none -genv I_MPI_FALLBACK_DEVICE disable -genv DAPL_MAX_CM_RETRIES 500 -genv DAPL_MAX_CM_RESPONSE_TIME 300 -genv I_MPI_DAPL_CONNECTION_TIMEOUT 300 -machinefile /tmp/pbs.5705169.cx1/tmp.Apuhf24367 -n 4 -wdir /home/nhine/ONETEP/devel/tests/test10 /home/nhine/ONETEP/devel/bin/onetep.cx1 h_bond_spd

Job output begins below
-----------------------
 +---------------------------------------------------------------+
 |                                                               |
 |        ####### #     # ####### ####### ####### ######         |
 |        #     # ##    # #          #    #       #     #        |
 |        #     # # #   # #          #    #       #     #        |
 |        #     # #  #  # #####      #    #####   ######         |
 |        #     # #   # # #          #    #       #              |
 |        #     # #    ## #          #    #       #              |
 |        ####### #     # #######    #    ####### #              |
 |                                                               |
 |        Linear-Scaling Ab Initio Total Energy Program          |
 |                                                               |
 |          Release for academic collaborators of ODG            |
 |                                              Version 3.0      |
 |                                                               |
 +---------------------------------------------------------------+
 |                                                               |
 |  Authors:                                                     |
 |  Peter D. Haynes, Nicholas D. M. Hine, Arash. A. Mostofi,     |
 |  Mike C. Payne and Chris-Kriton Skylaris                      |
 |                                                               |
 |  Contributors:                                                |
 |  P. W. Avraam, S. J. Clark, O. Dieguez, S. M. M. Dubois,      |
 |  J. Dziedzic, H. H. Helal, Q. O. Hill, D. D. O`Regan,         |
 |  C. J. Pickard, M. I. J. Probert, L. Ratcliff, M. Robinson    |
 |  and A. Ruiz Serrano                                          |
 |                                                               |
 |                                   Copyright (c) 2004-2011     |
 |                                                               |
 |  Please cite:                                                 |
 |  "Introducing ONETEP: Linear-scaling density functional       |
 |   simulations on parallel computers".                         |
 |   C.-K. Skylaris, P. D. Haynes, A. A. Mostofi, M. C. Payne.   |
 |   J. Chem. Phys. 122 084119 (2005).                           |
 |                                                               |
 |          in all publications arising from your use of ONETEP. |
 |                                                               |
 +---------------------------------------------------------------+
 |                                                               |
 |   ONETEP is based on developments described in the following  |
 |   publications:                                               |
 |                                                               |
 |  "Nonorthogonal generalized Wannier function pseudopotential  |
 |   plane-wave method".                                         |
 |   C.-K. Skylaris, A. A. Mostofi, P. D. Haynes, O. Dieguez,    |
 |   M. C. Payne.                                                |
 |   Phys. Rev. B 66 035119 (2002).                              |
 |                                                               |
 |  "Preconditioned iterative minimization for linear-scaling    |
 |   electronic structure calculations".                         |
 |   A. A. Mostofi, P. D. Haynes, C.-K. Skylaris, M. C. Payne.   |
 |   J. Chem. Phys. 119(17), pp.8842-8848 (2003).                |
 |                                                               |
 |  "Total-energy calculations on a real space grid with         |
 |   localized functions and a plane-wave basis".                |
 |   A. A. Mostofi, C.-K. Skylaris, P. D. Haynes, M. C. Payne.   |
 |   Comput. Phys. Commun. 147, pp.788-802 (2002).               |
 |                                                               |
 |  "Accurate kinetic energy evaluation in electronic structure  |
 |   calculations with localized functions on real space grids"  |
 |   C.-K. Skylaris, A. A. Mostofi, P. D. Haynes, C. J. Pickard, |
 |   M. C. Payne.                                                |
 |   Comput. Phys. Commun. 140, pp.315-322 (2001).               |
 |                                                               |
 +---------------------------------------------------------------+

Job started: 28-05-2011 00:59 (+0100)

Running on     4 processors.

Reading parameters from file "h_bond_spd.dat" ...... done
Reading geometry and species blocks from file "h_bond_spd.dat" ...    
  PSINC grid spacing along a1 set to   0.600000000000a0 from input file.
  Number of PPD points along a1 set to 5 from input file.
  PSINC grid spacing along a2 set to   0.600000000000a0 from input file.
  Number of PPD points along a2 set to 5 from input file.
  PSINC grid spacing along a3 set to   0.600000000000a0 from input file.
  Number of PPD points along a3 set to 5 from input file.
... done
-------------------------------------------------------------------------------
---------------------------- RUN-TIME PARAMETERS ------------------------------
-------------------------------------------------------------------------------
task                       : SINGLEPOINT *! Type of calculation (String)        
cutoffenergy               : 20.0000000000000      hartree *! Plane wave kineti 
kernelcutoff               : 1000.00000000000 *! Density kernel radius in Bohr  
xcfunctional               : LDA *! Exchange-correlation functional (String)    
libxcxfuncid               : 0 *! Functional identifier for which exchange func 
libxccfuncid               : 0 *! Functional identifier for which correlation f 
charge                     : 0.000000000000000E+000 *! The total charge of the  
spin                       : 0 *! Total spin of system (Integer)                
spinpolarized              : F *! Switch for spin polarization (Boolean)        
spinpolarised              : F *! Switch for spin polarisation (Boolean)        
constantefield             : 0.0 0.0 0.0 *! Cartesian coordinates of constant e 
fftboxpref                 : 65 65 65 *! Preferred FFT box dimensions (String)  
ppdnpoints                 : 5  5  5 *! PPD edge length in grid points for each 
psincspacing               : 0.6  0.6  0.6 *! PSINC grid spacing in atomic unit 
oldinput                   : F *! Read old-format input file (Boolean)          
develcode                  : *! For development code only (String)              
nnho                       : F *! Initialise NGWFs to nonorthogonal natural hyb 
ngwfhalo                   : -1.00000000000000 *! Halo extension to NGWF radii  
nonscforces                : F *! Include non self-consistent forces due to NGW 
maxitpalsermano            : 50 *! Maximum number of iterations for Palser-Mano 
maxitpen                   : 3 *! Max number of penalty functional iterations ( 
penparam                   : 4.00000000000000 *! Penalty functional parameter ( 
minitlnv                   : 3 *! Min number of LNV iterations (Integer)        
maxitlnv                   : 8 *! Max number of LNV iterations (Integer)        
maxitlnvcoarse             : 0 *! Max number of low-accuracy LNV iterations (In 
lnvthresholdorig           : 1.000000000000000E-009 *! LNV convergence threshol 
lnvcgtype                  : LNV_FLETCHER *! Type of CG coefficient for LNV den 
lnvcgmaxstep               : 3.00000000000000 *! Maximum length of trial step f 
exactlnv                   : F *! Use original LNV algorithm (Boolean)          
oldlnv                     : T *! Use LNV algorithm backwards compatible pre De 
lnvchecktrialsteps         : F *! Check stability of kernel at each trial step  
kerfix                     : 1 *! Density kernel fixing approach (Integer)      
maxitkernelfix             : 3 *! Maximum # iterations of Penalty Functional id 
initialdensrealspace       : F *! Construct initial density in real space from  
kerneldiis                 : F *! Use kernel DIIS in the inner loop (Boolean)   
kerneldiistype             : P *! Density mixing method (String)                
kerneldiismax              : 10 *! Max number of kernels saved during kernel DI 
kerneldiismaxit            : 25 *! Max number of kernel DIIS iterations (Intege 
kerneldiisthres            : 1.000000000000000E-009 *! Density mixing convergen 
kerneldiisliter            : 5 *! Number of linear mixing iterations (Integer)  
kerneldiiscin              : 0.900000000000000 *! Coefficient for the input ker 
kerneldiiscriteria         : 1000 *! Density mixing convergence criteria (Strin 
maxitngwfcg                : 60 *! Max number of NGWF conjugate gradients (CG)  
ngwfcgtype                 : NGWF_FLETCHER *! Type of CG coefficient for NGWF o 
ngwfcgmaxstep              : -8.00000000000000 *! Maximum length of trial step  
eleccgmax                  : 5 *! Number of NGWF iterations to reset CG (Intege 
precondscheme              : TETER *! Recip-space preconditioning scheme (Strin 
kzero                      : 3.00000000000000 *! KE preconditioning parameter ( 
rprecond                   : 2.00000000000000 *! Radial cut-off for real-space  
precondrecip               : T *! Recip-space KE preconditioning (Boolean)      
precondreal                : F *! Real-space KE preconditioning (Boolean)       
smoothscheme               : NONE *! Smoothing scheme for the NGWF gradients at 
rsmooth                    : 1.50000000000000      bohr *! Radius of the unshav 
ksmooth                    : 5.00000000000000 *! Characteristic wavelength of t 
occmix                     : 0.250000000000000 *! Mix fraction of occupancy pre 
kernelupdate               : F *! Update density kernel during NGWF line search 
kernelchristoffelupdate    : F *! Update density kernel during NGWF line search 
maxithotelling             : 50 *! Number of Hotelling iteration per NGWF chang 
maxresidhotelling          : 1.000000000000000E-012 *! Max allowed value in Hot 
maxitngwfdiis              : 0 *! Max number of NGWF DIIS steps (Integer)       
ngwfdiissize               : 4 *! Max size of the DIIS iterative subspace (Inte 
ngwfdiisreset              : 8 *! Max number of iteration for the resetting of  
ngwfdiismaxstep            : 2.00000000000000 *! Max length of trial step for N 
ngwfthresholdorig          : 2.000000000000000E-006 *! NGWF convergence thresho 
elecenergytol              : -1.000000000000000E-003 hartree *! Tolerance on to 
elecforcetol               : -1.000000000000000E-003 ha/bohr *! Tolerance on ma 
ngwfmaxgrad                : -2.000000000000000E-005 *! Maximum permissible val 
deltaeconv                 : T *! Use consecutive energy gains as a criterion f 
locpotintbatchsize         : 10 *! Size of NGWF in fftbox batch for locpot inte 
kineticintbatchsize        : 10 *! Size of NGWF in fftbox batch for kinetic int 
densitybatchsize           : 10 *! Size of NGWF in fftbox batch for charge dens 
ngwfgradbatchsize          : 10 *! Size of NGWF in fftbox batch for NGWF gradie 
densethreshold             : 0.400000000000000 *! Threshold for matrix segment  
commsgroupsize             : 4 *! Number of nodes in a group (determines comms  
ovlpfornonlocal            : F *! Overlap sparsity for nonlocal (Boolean)       
usespacefillingcurve       : T *! Re-arrange atoms according to space-filling c 
corehamdenskernguess       : T *! Initial guess for density kernel from core Ha 
checkatoms                 : T *! Check atoms on top of each other (Boolean)    
locpotscheme               : FULL *! Scheme for evaluating local potential matr 
smoothprojectors           : -0.400000000000000 *! Halfwidth of Gaussian filter 
smoothlocpspot             : -0.400000000000000 *! Halfwidth of Gaussian filter 
oddpsincgrid               : F *! Force odd number of points in simcell psinc g 
evenpsincgrid              : F *! Force even number of points in simcell psinc  
realspaceprojectors        : F *! Whether to evaluate and store projectors in r 
outputdetail               : VERBOSE *! Level of output detail (String)         
pawoutputdetail            : DEFAULT *! Level of output detail for PAW: BRIEF,  
timingslevel               : 0 *! Level of timings output: 0(none) 1(nodes summ 
writeparams                : T *! Output runtime parameters at startup (Boolean 
writeforces                : F *! Write ionic forces (Boolean)                  
writepositions             : T *! Write ionic positions each geometry or MD ste 
writexyz                   : F *! Output coordinates in .xyz file (Boolean)     
printqc                    : T *! Print Quality Control information (Boolean)   
cubeformat                 : F *! Allow .cube format for plot outputs (Boolean) 
dxformat                   : F *! Allow .dx format for plot outputs (Boolean)   
dxformatcoarse             : F *! Output only points on the coarse grid (Boolea 
dxformatdigits             : 7 *! Number of significant digits in .dx output (I 
grdformat                  : T *! Allow .grd format for plot outputs (Boolean)  
writedensityplot           : T *! Write the charge density in plotting format ( 
writengwfplot              : F *! Write NGWFs in plotting format (Boolean)      
writengwfgradplot          : F *! Write NGWF Gradients in plotting format (Bool 
writengwfradial            : F *! Write NGWFs radial distributions (Boolean)    
writengwfgradradial        : F *! Write NGWFs gradients radial distributions (B 
writeradialstep            : 5.000000000000000E-003 bohr *! Define the grid ste 
writeradialsmear           : 1.000000000000000E-002 bohr *! Define the gaussian 
readdenskern               : F *! Read density kernel restart information (Bool 
writedenskern              : F *! Write density kernel restart information (Boo 
readtightboxngwfs          : F *! Read in universal tightbox NGWFs restart info 
writetightboxngwfs         : F *! Write in universal tightbox NGWFs restart inf 
writeconvergeddkngwfs      : F *! Only write Density Kernel and NGWFs upon conv 
readswngwfs                : F *! Read NGWFs restart information in spherical w 
writeswngwfs               : F *! Write NGWFs restart information in spherical  
writemaxl                  : 3 *! Maximum angular momentum number when writing  
readmaxl                   : 3 *! Maximum angular momentum number when reading  
extransw                   : 0 *! Maximum number of zeros of the sph Bessel fun 
paw                        : F *! Uses a PAW construction to find correct core  
finegridscale              : 2.00000000000000 *! Ratio of size of fine grid to  
dblgridscale               : 2.00000000000000 *! Ratio of charge density / pote 
augfuncsrecip              : T *! Construct Augmentation functions in recip spa 
dispersion                 : 0 *! Select dispersion correction (Integer)        
vdwdcoeff                  : -1.00000000000000 *! Replacement VDW damping coeff 
hubbardmaxiter             : 0 *! Maximum number of DFT+U projector optimisatio 
hubbardenergytol           : 1.000000000000000E-008 hartree *! Energy tolerance 
hubbardconvwin             : 2 *! Energy convergence window when using DFT+U pr 
hubbardprojmixing          : 0.000000000000000E+000 *! Proportion of old Hubbar 
hubbardfunctional          : 1 *! DFT+U energy functional to use (Integer)      
hubbardtensorcorr          : 1 *! DFT+U projector tensorial correction to use ( 
hubbardngwfspinthreshold   : 2.000000000000000E-005 *! NGWF RMS  gradient thres 
coulombcutoffradius        : 0.000000000000000E+000 *! Radius of sphere or cyli 
coulombcutofflength        : 0.000000000000000E+000 *! Length of cylinder or wi 
coulombcutofftype          : NONE *! Type of cutoff coulomb interaction: NONE,  
coulombcutoffwriteint      : F *! Write real-space cutoff Coulomb interaction s 
pbccorrectioncutoff        : 0.000000000000000E+000 *! alpha*L cutoff parameter 
doproperties               : F *! Allow calculation of properties (Boolean)     
numeigenvalues             : 10 *! Number of energy and occupancy eigenvalues t 
homodensplot               : -1 *! Number of squared MOs to plot from HOMO and  
lumodensplot               : -1 *! Number of squared MOs to plot from LUMO and  
homoplot                   : 5 *! Number of MOs to plot from HOMO and lower (In 
lumoplot                   : 5 *! Number of MOs to plot from LUMO and higher (I 
dossmear                   : 3.674932438755288E-003 hartree *! Half width of sm 
ldossmear                  : 3.674932438755288E-003 hartree *! Lorentzian broad 
popncalculate              : F *! Allow population analysis (Boolean)           
popnbondcutoff             : 5.66917840375065      bohr *! Bond length cutoff f 
ngwfanalysis               : F *! Perform NGWF analysis (Boolean)               
polarisationcalculate      : F *! Allow calculation of polarisation (Boolean)   
spreadcalculate            : F *! Calculate spread of NGWFs (Boolean)           
geommodulusest             : 1.700000000000000E-002 ha/bohr**3 *! The estimated 
geomfrequencyest           : 7.600000000000000E-003 hartree *! The estimated av 
geomenergytol              : 1.000000000000000E-006 hartree *! Geometry optimiz 
geomforcetol               : 2.000000000000000E-003 ha/bohr *! Geometry optimiz 
geomdisptol                : 5.000000000000000E-003 bohr *! Geometry optimizati 
geommaxiter                : 50 *! Maximum number of geometry optimization iter 
geomconvergencewin         : 2 *! Geometry optimization convergence tolerance w 
geomcontinuation           : F *! Read information for continuation of a previo 
geombackupiter             : 1 *! Number of geometry optimisation iterations be 
geomresetdkngwfsiter       : 6 *! Number of geom iterations between resets of k 
geomreusedkngwfs           : T *! Re-use density kernel and NGWFs during geomet 
geomprintinvhessian        : F *! Write inverse Hessian to standard output (Boo 
geommethod                 : CARTESIAN *! Method for geometry optimization (Str 
tssearchmethod             : LSTQST *! Specifies method to be used for TS searc 
tssearchlstqstprotocol     : LSTMAXIMUM *! Specifies LSTQST protocol (String)   
tssearchqstmaxiter         : 5 *! Specifies maximum number of QST steps (Intege 
tssearchcgmaxiter          : 20 *! Specifies maximum number of CG steps (Intege 
tssearchforcetol           : 5.000000000000000E-003 ha/bohr *! Force tolerance  
tssearchdisptol            : 1.000000000000000E-002 bohr *! Displacement tolera 
mddeltat                   : 40.0000000000000      aut *! Molecular dynamics ti 
mdnumiter                  : 100 *! Maximum number of molecular dynamics iterat 
mdtemperature              : 9.500000000000000E-004 hartree *! Temperature for  
mdalgorithm                : LEAPFROGVERLET *! Integration algorithm for molecu 
mdthermostat               : NONE *! Thermostat for molecular dynamics (String) 
mdcollisionfrequency       : 0.152000000000000      hartree *! Collision freque 
mixdenskern                : 0 *! Number of coefficients used to build new gues 
mixngwfs                   : 0 *! Number of coefficients used to build new gues 
condreaddenskern           : F *! Read in conduction density kernel (Boolean)   
condreadtightboxngwfs      : F *! Read in universal tightbox conduction NGWFs ( 
condfixedshift             : F *! Fixed projected conduction Hamiltonian shift  
condcalcmaxeigen           : T *! Calculate maximum conduction Hamiltonian eige 
condnumstates              : 0 *! Number of conduction states to be optimised f 
condkernelcutoff           : 1000.00000000000 *! Conduction density kernel radi 
condinitshift              : 0.000000000000000E+000 *! Initial shifting factor  
condshiftbuffer            : 0.100000000000000 *! Additional buffer for updatin 
condnumextrastates         : 0 *! Number of extra conduction states for initial 
condnumextraits            : 0 *! Number of NGWF iterations with extra conducti 
condplotjointorbitals      : T *! Plot orbitals in the joint basis following a  
condplotvcorbitals         : T *! Plot orbitals in the val and cond NGWF basis  
condcalcopticalspectra     : F *! Calculate matrix elements for optical absorpt 
condspeccalcmommatels      : T *! Calculate momentum matrix elements (default t 
condspeccalcnonloccomm     : T *! Calculate nonlocal commutator for momentum ma 
condspeccontderiv          : T *! Calculate non-local commuator using continuou 
condspecnonloccommshift    : 1.000000000000000E-004 *! Finite difference shift  
bskpointpathspacing        : 0.188972700000000      1/bohr *! K-point spacing a 
bsnumeigenvalues           : -1 *! Num of energy and occ. eigenvalues to print  
bsunfold                   : 0 0 0 *! Number of times to unfold Brillouin zone  
bsmethod                   : TB *! Method to use: 'KP' or 'TB' (String)         
dotddft                    : F *! Allow Time-Dependent DFT calculation (Boolean 
tddftmaximumenergy         : 1.00000000000000      hartree *! Desired maximum o 
tddftresolution            : 1.000000000000000E-003 hartree *! Desired resoluti 
tddftpropagationmethod     : CRANKNICHOLSON *! Method used to integrate von Neu 
tddftsparsitylevel         : 0 *! Matrix sparsity when computing propagators e. 
tddfttammdancoff           : F *! Invoke Tamm-Dancoff decoupling approximation  
tddftdipolekickstrength    : 0.0 0.0 0.0 *! Maximum allowed phase shift in TDDF 
tddftxcfunctional          : LDA *! Exchange-correlation functional for TDDFT ( 
tddfthamiltonianmixing     : 0 *! Order of polynomial extrapolation to H(t + ha 
tddftdamping               : 0.000000000000000E+000 hartree *! Energy smearing  
tddftenforcedidempotency   : F *! Project out at each timestep that part of cha 
tddftmaxithotelling        : 50 *! Number of Hotelling iteration per propagatio 
tddftmaxresidhotelling     : 1.000000000000000E-018 *! Max allowed value in Hot 
tddftinvoverlapexact       : T *! Renew inverse overlap with O N^3 algorithm be 
isimplicitsolvent          : F *! Use implicit solvent? (Boolean)               
issmearedionrep            : F *! Implicit solvent: use smeared ions for electr 
isincludecavitation        : F *! Implicit solvent: include cavitation energy ( 
isdensitythreshold         : 7.800000000000000E-004 *! Implicit solvent: rho_0  
issolvationbeta            : 1.30000000000000 *! Implicit solvent: beta paramet 
isbulkpermittivity         : 1.00000000000000 *! Implicit solvent: eps_inf para 
ismultigriddefecterrortol  : 1.000000000000000E-002 *! Implicit solvent: stop c 
ismultigriderrortol        : 1.000000000000000E-005 *! Implicit solvent: stop c 
issmearedionwidth          : 0.800000000000000 *! Implicit solvent: Width of Ga 
issurfacethickness         : 2.000000000000000E-004 *! Implicit solvent: thickn 
issolventsurfacetension    : 4.762400000000000E-005 ha/bohr**2 *! Implicit solv 
ismultigridmaxiters        : 100 *! Implicit solvent: max number of iterations  
ismultigridnlevels         : 4 *! Implicit solvent: number of levels in multigr 
isdiscretizationorder      : 8 *! Implicit solvent: discretization order (2nd,  
isbccoarseness             : 5 *! Implicit solvent: controls boundary condition 
isbcsurfacecoarseness      : 1 *! Implicit solvent: controls boundary condition 
ischecksolvenergygrad      : F *! Implicit solvent: sanity check the energy gra 
issolvationmethod          : DIRECT *! Implicit solvent: direct or corrective m 
isdielectricmodel          : FIX_INITIAL *! Implicit solvent: how the cavity is 
isdielectricfunction       : FGF *! Implicit solvent: how the cavity is determi 
issolvationoutputdetail    : NONE *! Implicit solvent: controls extra output (S 
openbcionion               : F *! Force open BCs in ion-ion energy (Boolean)    
openbchartree              : F *! Force open BCs in Hartree potential (Boolean) 
openbcpspot                : F *! Force open BCs in local pseudopotential (Bool 
openbcpspotfinetunenptsx   : 100000 *! Open BCs in local pseudo, npts_x paramet 
openbcpspotfinetunealpha   : 0.300000000000000 *! Open BCs in local pseudo, alp 
openbcpspotfinetunef       : -1 *! Open BCs in local pseudo, fineness parameter 
%block positionsabs        : *! Cartesian positions for each atom (Block)       
O     24.887507   23.896975   22.647313                                         
C     27.731659   23.667449   22.643306                                         
H     28.655157   21.721170   22.637547                                         
H     28.955467   25.440371   22.646039                                         
O     19.766101   21.820471   22.648599                                         
H     17.687651   22.103070   22.651801                                         
H     20.725313   23.685785   22.651874                                         
%endblock positionsabs     : *! Cartesian positions for each atom (Block)       
%block latticecart         : *! The simulation cell lattice vectors (Block)     
51.00     0.00     0.00                                                         
0.00    51.00     0.00                                                          
0.00     0.00    51.00                                                          
%endblock latticecart      : *! The simulation cell lattice vectors (Block)     
%block species             : *! Species information (symbol, atomic number, num 
O    O    8    4    6.3                                                         
C    C    6    4    6.3                                                         
H    H    1    1    6.0                                                         
%endblock species          : *! Species information (symbol, atomic number, num 
%block speciespot          : *! Pseudopotential name for each species (Block)   
O    "../../pseudo/oxygen_spd.recpot"                                           
C    "../../pseudo/carbon_spd.recpot"                                           
H    "../../pseudo/hydrogen_coul.recpot"                                        
%endblock speciespot       : *! Pseudopotential name for each species (Block)   
%block speciesatomicset    : *! Atomic set name for each species (Block)        
O    "../../fireballs/O_SZ_6.0_recpot01_600eV.fbl"                              
C    "../../fireballs/C_SZ_6.0_recpot00_600eV.fbl"                              
H    "../../fireballs/H_SZ_6.0_recpot00_600eV.fbl"                              
%endblock speciesatomicset : *! Atomic set name for each species (Block)        
-------------------------------------------------------------------------------
-------------------------------------------------------------------------------

<<<<<<<<<<<<<<<<<<<<<<<<< Pseudopotential information >>>>>>>>>>>>>>>>>>>>>>>>>
File: ../../pseudo/oxygen_spd.recpot [ 2001 points up to Gmax=  52.9 (1/bohr)]
  Atomic number:  8;  ionic charge:  6.000000
    Shell 1: l = 0; rc = 1.01 bohr
    Shell 2: l = 1; rc = 1.60 bohr
    Shell 3: l = 2; rc = 1.60 bohr
File: ../../pseudo/carbon_spd.recpot [ 2001 points up to Gmax=  52.9 (1/bohr)]
  Atomic number:  6;  ionic charge:  4.000000
    Shell 1: l = 0; rc = 1.25 bohr
    Shell 2: l = 1; rc = 1.48 bohr
    Shell 3: l = 2; rc = 1.54 bohr
File: ../../pseudo/hydrogen_coul.recpot [ 2001 points up to Gmax=  52.9 (1/bohr)]
  Atomic number:  1;  ionic charge:  1.000000
    Local potential
<<<<<<<<<<<<<<<<<<<<<<<<<<<<<<<<<<<<<<< >>>>>>>>>>>>>>>>>>>>>>>>>>>>>>>>>>>>>>>

------------------------- Atom counting information ---------------------------
Symbol    Natoms    Nngwfs    Nprojs
  O          2         8        18
  C          1         4         9
  H          4         4         0
.......   ......    ......    ......
Totals:      7        16        27
-------------------------------------------------------------------------------
 
Determining parallel strategy ...
... using space-filling curve
... NGWF load balancing: max      5;  min      1;  average      4
... Projector load balancing: max      9;  min      0;  average      7
... done

Calculating Ewald energy ...
              Ewald: real-space energy =      27.419782
        Ewald: reciprocal-space energy =       1.617082
         Ewald: (sum_charge)**2 Energy =       2.050031
         Ewald: (sum_charge**2) Energy =       2.494981
                          Ewald Energy =      24.491852
... FFT-box specified

Basis initialisation ...
... Atom positions lie inside simulation cell
... NGWF spheres initialised
... Projector spheres initialised
... NGWF tight boxes initialised
... NGWF basis size (local,global):       5252     17568
... Tight-boxes gathered
... done

============================== PSINC grid sizes ================================
                      Simulation cell:   85 x  85 x  85
                              FFT-box:   75 x  75 x  75
                                  PPD:    5 x   5 x   5
Grid space d1=  0.600000000000a0 (KE cutoff=  21.10093Eh = 574.18539eV)
Grid space d2=  0.600000000000a0 (KE cutoff=  21.10093Eh = 574.18539eV)
Grid space d3=  0.600000000000a0 (KE cutoff=  21.10093Eh = 574.18539eV)
================================================================================

********************** Fourier parallelisation information *********************
       Coarse grid (whole simulation cell) dimensions:     85    85    85

                 Real-space grid ('12' slabs):
                   Node    0:   21 (from    1 to   21)
                   Node    1:   21 (from   22 to   42)
                   Node    2:   22 (from   43 to   64)
                   Node    3:   21 (from   65 to   85)

                 Reciprocal-space grid ('23' slabs):
                   Node    0:   10 (from    1 to   10)
                   Node    1:   11 (from   11 to   21)
                   Node    2:   11 (from   22 to   32)
                   Node    3:   11 (from   33 to   43)
********************************************************************************

********************** Fourier parallelisation information *********************
       Double grid (whole simulation cell) dimensions:    170   170   170

                 Real-space grid ('12' slabs):
                   Node    0:   42 (from    1 to   42)
                   Node    1:   43 (from   43 to   85)
                   Node    2:   43 (from   86 to  128)
                   Node    3:   42 (from  129 to  170)

                 Reciprocal-space grid ('23' slabs):
                   Node    0:   21 (from    1 to   21)
                   Node    1:   22 (from   22 to   43)
                   Node    2:   22 (from   44 to   65)
                   Node    3:   21 (from   66 to   86)
********************************************************************************

=========================== Sparse matrix information ==========================
                        Overlap matrix filling: 100.00%
                        Density kernel filling: 100.00%
              NGWF-Proj overlap matrix filling:  77.08%
                    Hamiltonian matrix filling: 100.00%
                  NGWF diagonal matrix filling:  20.31%
                             KS matrix filling: 100.00% 
                           KSKS matrix filling: 100.00% 
================================================================================

Sparse matrix initialisation ... done
NGWF initialisation ...... done

============ Calculation of NGWF S^-1 using Hotelling algorithm ================ 
         Iteration  |  Frobenius norm and Maximum abs value    (of I-S*S_n^-1)   
               1       0.33871996E+01     0.87190191E+00
               2       0.30316759E+01     0.76021902E+00
               3       0.26123384E+01     0.59521760E+00
               4       0.21910196E+01     0.56162116E+00
               5       0.18202926E+01     0.52184614E+00
               6       0.14501423E+01     0.45345952E+00
               7       0.10078164E+01     0.34667257E+00
               8       0.56053713E+00     0.20941740E+00
               9       0.20700313E+00     0.81018545E-01
              10       0.30588735E-01     0.12738583E-01
              11       0.69910598E-03     0.31902406E-03
              12       0.40512447E-06     0.20021199E-06
              13       0.15524614E-12     0.79047879E-13
================================================================================
Up spin density kernel initialisation ... 
======= Optimisation of K by Palser-Manolopoulos canonical purification ======== 
         Iteration  |  Band structure energy |    c_n   
               1         -11.94807962255617    0.5598212
               2         -12.50452314127101    0.5365235
               3         -13.11828385813103    0.4964768
               4         -13.66822765066688    0.4204953
               5         -13.90271276256536    0.3708508
               6         -13.98655525066935    0.3702002
               7         -14.04461951778822    0.3570595
               8         -14.08019717774290    0.3519629
               9         -14.09914516884113    0.3872966
              10         -14.11438218787992    0.4357469
              11         -14.12764147887697    0.4772619
              12         -14.13739795046416    0.4970262
              13         -14.14246146121939    0.4999495
              14         -14.14362561616467    0.5000000
              15         -14.14367578386880    0.5000000
              16         -14.14367587117027    0.5046054
              17         -14.14367587117053    1.0004348
Final occupancy bounds: [    0.00000000000000:    1.00000000000000]
Closest occupancy to 0.5:     0.99999999999999
================================================================================
... done
   Initial electron number for spin 1:      20.00000000
     Final electron number for spin 1:      20.00000000
................................................................................
<<<<<<<<<<<<<<<< Penalty functional density kernel optimisation >>>>>>>>>>>>>>>>
~~~~~~~~~~~~~~~~~~~~~~~~~~~~~~~~~~~~~~~~~~~~~~~~~~~~~~~~~~~~~~~~~~~~~~~~~~~~~~~~
iter|       energy      |   rms grad  |  commutator |LScoef|CGcoef|      Ne    |
      Q0=E0+P0:     -36.112882380131=    -36.112882380131+      0.000000000000
    Trial step:       1.000000000000
            G0:     -18.294439704765
WARNING: minimum value of charge density: -0.3542
      Q1=E1+P1:     194.964225645112=    -16.927168482755+    211.891394127867
Quadratic term:    -249.371547730008
   Linear term:     -18.294439704765
  Optimal step:       0.036681088663
 Predicted min:     -36.448412362559
    !!! Quadratic minimum step length accepted !!!
 1    -36.11288238013087 0.26732499901 0.22687114576 0.0367  0.000   20.00000000
WARNING: minimum value of charge density: -0.0016
      Q0=E0+P0:     -36.664061604922=    -36.734080059626+      0.070018454704
    Trial step:       0.191523076059
            G0:      -2.669060990142
WARNING: minimum value of charge density: -0.0019
      Q1=E1+P1:     -37.125123307332=    -37.238069744935+      0.112946437603
Quadratic term:      -0.050125068613
   Linear term:      -0.511186771022
  Optimal step:       0.976597793647
 Predicted min:     -37.967361141964
    !!! Quadratic minimum step length accepted !!!
 2    -36.73408005962643 0.18207631623 0.21387178956 0.9766 -0.496   20.00000000
WARNING: minimum value of charge density: -0.0376
      Q0=E0+P0:     -36.541536594999=    -38.970050443416+      2.428513848417
    Trial step:       0.432482385205
WARNING: internal_polak_cg_coeff = 12.64220
WARNING: setting internal_polak_cg_coeff to zero
            G0:    -100.326740867600
WARNING: minimum value of charge density: -1.1727
      Q1=E1+P1:     119.063728851716=      4.677948770910+    114.385780080806
Quadratic term:    -198.994813636929
   Linear term:     -43.389548190215
  Optimal step:       0.047150010976
 Predicted min:     -38.906740061540
    !!! Quadratic minimum step length accepted !!!
 3    -38.97005044341605 0.62602023251 0.25060165114 0.0472  0.000   20.00000000
WARNING: minimum value of charge density: -0.0013

======================== Penalty functional minimisation =======================
   Final total energy     :     -39.025263243713
   Final penalty energy   :       0.537037472733
   RMS occupancy error    :       0.091604
   Occupancy bounds       : [-0.112, 1.169]
================================================================================

Finished density kernel iterations (   3)

################################################################################
########################### NGWF CG iteration  001 #############################
################################################################################
****** Reciprocal space K.E. preconditioning with k_zero =  3.0000 a0^-1 *******
   Initial electron number for spin 1:      20.00000000
     Final electron number for spin 1:      20.00000000

=================== Penalty functional idempotency correction ==================
 RMS occupancy error at iteration   1:  0.091604 (step -0.3770 Ne1=     20.0000)
 RMS occupancy error at iteration   2:  0.017373 (step -0.5435 Ne1=     20.0000)
 RMS occupancy error at iteration   3:  0.000879 (step -0.5018 Ne1=     20.0000)
            Final RMS occupancy error   :  0.000002 (Ne1=     20.0000)
               Final occupancy bounds   : [  0.0000,  1.0000]
================================================================================

................................................................................
<<<<<<<<<< LNV (Millam-Scuseria variant) density kernel optimisation >>>>>>>>>>>
~~~~~~~~~~~~~~~~~~~~~~~~~~~~~~~~~~~~~~~~~~~~~~~~~~~~~~~~~~~~~~~~~~~~~~~~~~~~~~~~
iter|       energy      |  rms DeltaK |  commutator |LScoef|CGcoef|      Ne    |
      ideal mu1:      -0.000001841670
-mu(2tr(KS)-Ne):       0.000000000000
             Q0:     -38.211334065232
DltNe tr(Dir*S):       0.000000000000
             G0:      -2.479894043192
   RMS gradient:       0.098422995820
 1    -38.21133406523177 0.00000000000 0.15806726622 0.1000  0.000   20.00000000
      ideal mu1:       0.000000000000
-mu(2tr(KS)-Ne):       0.000000000000
             Q0:     -38.437870257040
DltNe tr(Dir*S):       0.000000000000
             G0:      -3.164541610212
   RMS gradient:       0.082325113274
 2    -38.43787025703971 0.01432729236 0.13311540042 0.1000  0.700   20.00000000
      ideal mu1:      -0.000000000017
 3    -38.69416911498625 0.02152890372 0.09178736558 0.0000  0.000   20.00000000
Finished density kernel iterations (   3)

           ........................................................
           | *** NGWF optimisation not converged ***              |
           | RMS NGWF gradient =    0.00560011692876              |
           | Criteria not satisfied:                              |
           | -> RMS NGWF gradient higher than set threshold.      |
           ========================================================

------------------------------- NGWF line search -------------------------------
============ Calculation of NGWF S^-1 using Hotelling algorithm ================ 
         Iteration  |  Frobenius norm and Maximum abs value    (of I-S*S_n^-1)   
               1       0.36050244E-01     0.13081009E-01
               2       0.43134063E-03     0.21940183E-03
               3       0.10167370E-06     0.59121673E-07
               4       0.82882406E-14     0.52180482E-14
================================================================================
============ Calculation of NGWF S^-1 using Hotelling algorithm ================ 
         Iteration  |  Frobenius norm and Maximum abs value    (of I-S*S_n^-1)   
               1       0.11509798E+00     0.39981162E-01
               2       0.46421440E-02     0.20813514E-02
               3       0.11196218E-04     0.57789945E-05
               4       0.89175808E-10     0.51874172E-10
               5       0.17825036E-14     0.66613381E-15
================================================================================
RMS gradient                =       0.00560011692876
Trial step length           =               0.122474
Gradient along search dir.  =         -2.35034198784
Functional at step 0        =     -38.69416911498625
Functional at step 1        =     -38.94634941865673
Functional predicted        =     -39.27481267239052
Selected quadratic step     =               0.494093
Conjugate gradients coeff.  =               0.000000
--------------------------- NGWF line search finished --------------------------
                                               

################################################################################
########################### NGWF CG iteration  002 #############################
################################################################################
****** Reciprocal space K.E. preconditioning with k_zero =  3.0000 a0^-1 *******
   Initial electron number for spin 1:      20.43785697
     Final electron number for spin 1:      20.00000000

=================== Penalty functional idempotency correction ==================
 RMS occupancy error at iteration   1:  0.016571 (step -0.4721 Ne1=     20.0000)
 RMS occupancy error at iteration   2:  0.000278 (step -0.5003 Ne1=     20.0000)
 RMS occupancy error at iteration   3:  0.000000 (step -0.5000 Ne1=     20.0000)
            Final RMS occupancy error   :  0.000000 (Ne1=     20.0000)
               Final occupancy bounds   : [  0.0000,  1.0000]
================================================================================

................................................................................
<<<<<<<<<< LNV (Millam-Scuseria variant) density kernel optimisation >>>>>>>>>>>
~~~~~~~~~~~~~~~~~~~~~~~~~~~~~~~~~~~~~~~~~~~~~~~~~~~~~~~~~~~~~~~~~~~~~~~~~~~~~~~~
iter|       energy      |  rms DeltaK |  commutator |LScoef|CGcoef|      Ne    |
      ideal mu1:       0.000000000000
-mu(2tr(KS)-Ne):       0.000000000000
             Q0:     -39.281751169488
DltNe tr(Dir*S):       0.000000000000
             G0:      -0.177578625389
   RMS gradient:       0.026337549344
-mu(2tr(KS)-Ne):       0.000000000000
     Trial step:       0.500000000000
             Q1:     -39.341497886945
 Quadratic coef:       0.029042595237
 Linear coef   :      -0.088789312695
           Qmin:     -39.349613063236
Quadratic minimum step length (  0.764302500936) accepted
 1    -39.28175116948753 0.00000000000 0.04632440053 0.7643  0.000   20.00000000
      ideal mu1:      -0.000000000124
-mu(2tr(KS)-Ne):       0.000000000000
             Q0:     -39.347769188014
DltNe tr(Dir*S):       0.000000000000
             G0:      -0.047658959631
   RMS gradient:       0.014104738714
-mu(2tr(KS)-Ne):       0.000000000000
     Trial step:       0.618183832260
             Q1:     -39.364983433801
 Quadratic coef:       0.012247752519
 Linear coef   :      -0.029461998306
           Qmin:     -39.365486915059
Quadratic minimum step length (  0.743521351785) accepted
 2    -39.34776918801382 0.02732338521 0.02169538858 0.7435  0.287   20.00000000
      ideal mu1:      -0.000000000011
 3    -39.36629433648565 0.01546632667 0.01547273560 0.0000  0.000   20.00000000
Finished density kernel iterations (   3)

           ........................................................
           | *** NGWF optimisation not converged ***              |
           | RMS NGWF gradient =    0.00186924006161              |
           | Criteria not satisfied:                              |
           | -> RMS NGWF gradient higher than set threshold.      |
           ========================================================

------------------------------- NGWF line search -------------------------------
============ Calculation of NGWF S^-1 using Hotelling algorithm ================ 
         Iteration  |  Frobenius norm and Maximum abs value    (of I-S*S_n^-1)   
               1       0.19138656E-01     0.75790863E-02
               2       0.10300486E-03     0.47672648E-04
               3       0.48278333E-08     0.23563897E-08
               4       0.18433878E-14     0.88817842E-15
================================================================================
============ Calculation of NGWF S^-1 using Hotelling algorithm ================ 
         Iteration  |  Frobenius norm and Maximum abs value    (of I-S*S_n^-1)   
               1       0.28953814E-01     0.11775337E-01
               2       0.24596573E-03     0.10762917E-03
               3       0.25794146E-07     0.12082189E-07
               4       0.14069016E-14     0.49960036E-15
================================================================================
RMS gradient                =       0.00186924006161
Trial step length           =               0.245995
Gradient along search dir.  =         -0.24225986809
Functional at step 0        =     -39.36629433648565
Functional at step 1        =     -39.41354883122239
Functional predicted        =     -39.43824425011084
Selected quadratic step     =               0.593990
Conjugate gradients coeff.  =               0.111413
--------------------------- NGWF line search finished --------------------------
                                               

################################################################################
########################### NGWF CG iteration  003 #############################
################################################################################
****** Reciprocal space K.E. preconditioning with k_zero =  3.0000 a0^-1 *******
   Initial electron number for spin 1:      20.09066003
     Final electron number for spin 1:      20.00000000

=================== Penalty functional idempotency correction ==================
 RMS occupancy error at iteration   1:  0.003240 (step -0.4937 Ne1=     20.0000)
 RMS occupancy error at iteration   2:  0.000017 (step -0.5000 Ne1=     20.0000)
            Final RMS occupancy error   :  0.000000 (Ne1=     20.0000)
               Final occupancy bounds   : [  0.0000,  1.0000]
================================================================================

................................................................................
<<<<<<<<<< LNV (Millam-Scuseria variant) density kernel optimisation >>>>>>>>>>>
~~~~~~~~~~~~~~~~~~~~~~~~~~~~~~~~~~~~~~~~~~~~~~~~~~~~~~~~~~~~~~~~~~~~~~~~~~~~~~~~
iter|       energy      |  rms DeltaK |  commutator |LScoef|CGcoef|      Ne    |
      ideal mu1:      -0.000000000801
-mu(2tr(KS)-Ne):       0.000000000000
             Q0:     -39.438864407438
DltNe tr(Dir*S):       0.000000000000
             G0:      -0.013598673311
   RMS gradient:       0.007288334352
-mu(2tr(KS)-Ne):       0.000000000000
     Trial step:       0.677962298814
             Q1:     -39.443250507469
 Quadratic coef:       0.004833287788
 Linear coef   :      -0.009219387819
           Qmin:     -39.443260851198
Quadratic minimum step length (  0.646598923277) accepted
 1    -39.43886440743792 0.00000000000 0.01117969181 0.6466  0.000   20.00000000
      ideal mu1:       0.000000000000
-mu(2tr(KS)-Ne):       0.000000000000
             Q0:     -39.443268703892
DltNe tr(Dir*S):       0.000000000000
             G0:      -0.003403626427
   RMS gradient:       0.003638505691
-mu(2tr(KS)-Ne):       0.000000000000
     Trial step:       0.662094927058
             Q1:     -39.444522352338
 Quadratic coef:       0.000999875345
 Linear coef   :      -0.002253523791
           Qmin:     -39.444538454542
Quadratic minimum step length (  0.746116341967) accepted
 2    -39.44326870389219 0.00706511607 0.00639094549 0.7461  0.249   20.00000000
      ideal mu1:       0.000000000000
 3    -39.44454322836599 0.00406330737 0.00379472368 0.0000  0.000   20.00000000
Finished density kernel iterations (   3)

           ........................................................
           | *** NGWF optimisation not converged ***              |
           | RMS NGWF gradient =    0.00074799566325              |
           | Criteria not satisfied:                              |
           | -> RMS NGWF gradient higher than set threshold.      |
           ========================================================

------------------------------- NGWF line search -------------------------------
============ Calculation of NGWF S^-1 using Hotelling algorithm ================ 
         Iteration  |  Frobenius norm and Maximum abs value    (of I-S*S_n^-1)   
               1       0.13751710E-01     0.39526311E-02
               2       0.67329496E-04     0.20364585E-04
               3       0.24526381E-08     0.87574159E-09
               4       0.13497956E-14     0.66613381E-15
================================================================================
============ Calculation of NGWF S^-1 using Hotelling algorithm ================ 
         Iteration  |  Frobenius norm and Maximum abs value    (of I-S*S_n^-1)   
               1       0.89234307E-02     0.26269608E-02
               2       0.29718790E-04     0.10665930E-04
               3       0.50468272E-09     0.21295410E-09
               4       0.14753474E-14     0.55511151E-15
================================================================================
RMS gradient                =       0.00074799566325
Trial step length           =               0.382255
Gradient along search dir.  =         -0.04231366648
Functional at step 0        =     -39.44454322836599
Functional at step 1        =     -39.45567509213924
Functional predicted        =     -39.45751325275882
Selected quadratic step     =               0.613042
Conjugate gradients coeff.  =               0.160128
--------------------------- NGWF line search finished --------------------------
                                               

################################################################################
########################### NGWF CG iteration  004 #############################
################################################################################
****** Reciprocal space K.E. preconditioning with k_zero =  3.0000 a0^-1 *******
   Initial electron number for spin 1:      20.02454558
     Final electron number for spin 1:      20.00000000

=================== Penalty functional idempotency correction ==================
 RMS occupancy error at iteration   1:  0.001281 (step -0.4985 Ne1=     20.0000)
 RMS occupancy error at iteration   2:  0.000005 (step -0.5000 Ne1=     20.0000)
            Final RMS occupancy error   :  0.000000 (Ne1=     20.0000)
               Final occupancy bounds   : [  0.0000,  1.0000]
================================================================================

................................................................................
<<<<<<<<<< LNV (Millam-Scuseria variant) density kernel optimisation >>>>>>>>>>>
~~~~~~~~~~~~~~~~~~~~~~~~~~~~~~~~~~~~~~~~~~~~~~~~~~~~~~~~~~~~~~~~~~~~~~~~~~~~~~~~
iter|       energy      |  rms DeltaK |  commutator |LScoef|CGcoef|      Ne    |
      ideal mu1:      -0.000000000063
-mu(2tr(KS)-Ne):       0.000000000000
             Q0:     -39.457609251427
DltNe tr(Dir*S):       0.000000000000
             G0:      -0.001517059666
   RMS gradient:       0.002434340634
-mu(2tr(KS)-Ne):       0.000000000000
     Trial step:       0.702851225375
             Q1:     -39.457745110352
 Quadratic coef:       0.000930408321
 Linear coef   :      -0.001066267246
           Qmin:     -39.457914742525
Quadratic minimum step length (  0.402741045651) accepted
 1    -39.45760925142714 0.00000000000 0.00413600227 0.4027  0.000   20.00000000
      ideal mu1:       0.000000000000
-mu(2tr(KS)-Ne):       0.000000000000
             Q0:     -39.457914367323
DltNe tr(Dir*S):       0.000000000000
             G0:      -0.000152320558
   RMS gradient:       0.000771749626
-mu(2tr(KS)-Ne):       0.000000000000
     Trial step:       0.532040447189
             Q1:     -39.457974282037
 Quadratic coef:       0.000021125984
 Linear coef   :      -0.000081040698
           Qmin:     -39.457992086716
Quadratic minimum step length (  1.020471477976) accepted
 2    -39.45791436732297 0.00133093787 0.00140775093 1.0205  0.101   20.00000000
      ideal mu1:       0.000000000000
 3    -39.45799201784307 0.00102867706 0.00109528353 0.0000  0.000   20.00000000
Finished density kernel iterations (   3)

           ........................................................
           | *** NGWF optimisation not converged ***              |
           | RMS NGWF gradient =    0.00038441828233              |
           | Criteria not satisfied:                              |
           | -> RMS NGWF gradient higher than set threshold.      |
           ========================================================

------------------------------- NGWF line search -------------------------------
============ Calculation of NGWF S^-1 using Hotelling algorithm ================ 
         Iteration  |  Frobenius norm and Maximum abs value    (of I-S*S_n^-1)   
               1       0.14512906E-01     0.35794974E-02
               2       0.96700909E-04     0.25440624E-04
               3       0.62887877E-08     0.18510882E-08
               4       0.16392796E-14     0.55511151E-15
================================================================================
============ Calculation of NGWF S^-1 using Hotelling algorithm ================ 
         Iteration  |  Frobenius norm and Maximum abs value    (of I-S*S_n^-1)   
               1       0.68697793E-02     0.18494454E-02
               2       0.22529758E-04     0.65019550E-05
               3       0.35452879E-09     0.11142332E-09
               4       0.15548033E-14     0.55511151E-15
================================================================================
RMS gradient                =       0.00038441828233
Trial step length           =               0.484085
Gradient along search dir.  =         -0.01136168702
Functional at step 0        =     -39.45799201784307
Functional at step 1        =     -39.46157350557937
Functional predicted        =     -39.46193386119805
Selected quadratic step     =               0.693883
Conjugate gradients coeff.  =               0.264125
--------------------------- NGWF line search finished --------------------------
                                               

################################################################################
########################### NGWF CG iteration  005 #############################
################################################################################
****** Reciprocal space K.E. preconditioning with k_zero =  3.0000 a0^-1 *******
   Initial electron number for spin 1:      20.02196717
     Final electron number for spin 1:      20.00000000

=================== Penalty functional idempotency correction ==================
 RMS occupancy error at iteration   1:  0.001157 (step -0.4984 Ne1=     20.0000)
 RMS occupancy error at iteration   2:  0.000004 (step -0.5000 Ne1=     20.0000)
            Final RMS occupancy error   :  0.000000 (Ne1=     20.0000)
               Final occupancy bounds   : [  0.0000,  1.0000]
================================================================================

................................................................................
<<<<<<<<<< LNV (Millam-Scuseria variant) density kernel optimisation >>>>>>>>>>>
~~~~~~~~~~~~~~~~~~~~~~~~~~~~~~~~~~~~~~~~~~~~~~~~~~~~~~~~~~~~~~~~~~~~~~~~~~~~~~~~
iter|       energy      |  rms DeltaK |  commutator |LScoef|CGcoef|      Ne    |
      ideal mu1:      -0.000000000076
-mu(2tr(KS)-Ne):       0.000000000000
             Q0:     -39.462005064982
DltNe tr(Dir*S):       0.000000000000
             G0:      -0.000591939566
   RMS gradient:       0.001520613011
-mu(2tr(KS)-Ne):       0.000000000000
     Trial step:       0.736839264348
             Q1:     -39.462047607882
 Quadratic coef:       0.000393621415
 Linear coef   :      -0.000436164314
           Qmin:     -39.462125891303
Quadratic minimum step length (  0.408238703988) accepted
 1    -39.46200506498234 0.00000000000 0.00249669276 0.4082  0.000   20.00000000
      ideal mu1:       0.000000000000
-mu(2tr(KS)-Ne):       0.000000000000
             Q0:     -39.462125786668
DltNe tr(Dir*S):       0.000000000000
             G0:      -0.000061424603
   RMS gradient:       0.000489913125
-mu(2tr(KS)-Ne):       0.000000000000
     Trial step:       0.548458117202
             Q1:     -39.462145708871
 Quadratic coef:       0.000013766619
 Linear coef   :      -0.000033688822
           Qmin:     -39.462146396970
Quadratic minimum step length (  0.671076449648) accepted
 2    -39.46212578666785 0.00084456631 0.00082015748 0.6711  0.104   20.00000000
      ideal mu1:       0.000000000000
 3    -39.46214650124529 0.00049413619 0.00057590053 0.0000  0.000   20.00000000
Finished density kernel iterations (   3)

           ........................................................
           | *** NGWF optimisation not converged ***              |
           | RMS NGWF gradient =    0.00021300037129              |
           | Criteria not satisfied:                              |
           | -> RMS NGWF gradient higher than set threshold.      |
           ========================================================

================================================================================
           ---------------- ENERGY COMPONENTS (Eh) ----------------
           | Kinetic                    :       26.06428106320973 |
           | Pseudopotential (local)    :     -145.91716136105703 |
           | Pseudopotential (non-local):        7.82208851416387 |
           | Hartree                    :       57.55289780715512 |
           | Exchange-correlation       :       -9.47610413094271 |
           | Ewald                      :       24.49185160622570 |
           | Total                      :      -39.46214650124531 |
           --------------------------------------------------------
           ------ LOCAL ENERGY COMPONENTS FROM MATRIX TRACES ------
           | Pseudopotential (local)    :     -145.91716136105558 |
           | Hartree                    :       57.55289780715464 |
           --------------------------------------------------------
           Integrated density           :       19.99999999999978
           Integrated density tr(KS)    :       20.00000000000001
================================================================================


------------------------------- NGWF line search -------------------------------
============ Calculation of NGWF S^-1 using Hotelling algorithm ================ 
         Iteration  |  Frobenius norm and Maximum abs value    (of I-S*S_n^-1)   
               1       0.15419122E-01     0.39766992E-02
               2       0.12080721E-03     0.38587508E-04
               3       0.10161617E-07     0.33847923E-08
               4       0.14722909E-14     0.44408921E-15
================================================================================
============ Calculation of NGWF S^-1 using Hotelling algorithm ================ 
         Iteration  |  Frobenius norm and Maximum abs value    (of I-S*S_n^-1)   
               1       0.19919916E-02     0.48588263E-03
               2       0.20930571E-05     0.66113616E-06
               3       0.31635368E-11     0.10700885E-11
               4       0.11675768E-14     0.36082248E-15
================================================================================
RMS gradient                =       0.00021300037129
Trial step length           =               0.579568
Gradient along search dir.  =         -0.00358167106
Functional at step 0        =     -39.46214650124529
Functional at step 1        =     -39.46329565555352
Functional predicted        =     -39.46330901017681
Selected quadratic step     =               0.649143
Conjugate gradients coeff.  =               0.307010
--------------------------- NGWF line search finished --------------------------
                                               

################################################################################
########################### NGWF CG iteration  006 #############################
################################################################################
****** Reciprocal space K.E. preconditioning with k_zero =  3.0000 a0^-1 *******
   Initial electron number for spin 1:      20.01242609
     Final electron number for spin 1:      20.00000000

=================== Penalty functional idempotency correction ==================
 RMS occupancy error at iteration   1:  0.000779 (step -0.4990 Ne1=     20.0000)
 RMS occupancy error at iteration   2:  0.000002 (step -0.5000 Ne1=     20.0000)
            Final RMS occupancy error   :  0.000000 (Ne1=     20.0000)
               Final occupancy bounds   : [  0.0000,  1.0000]
================================================================================

................................................................................
<<<<<<<<<< LNV (Millam-Scuseria variant) density kernel optimisation >>>>>>>>>>>
~~~~~~~~~~~~~~~~~~~~~~~~~~~~~~~~~~~~~~~~~~~~~~~~~~~~~~~~~~~~~~~~~~~~~~~~~~~~~~~~
iter|       energy      |  rms DeltaK |  commutator |LScoef|CGcoef|      Ne    |
      ideal mu1:      -0.000000000030
-mu(2tr(KS)-Ne):       0.000000000000
             Q0:     -39.463342362507
DltNe tr(Dir*S):       0.000000000000
             G0:      -0.000188436585
   RMS gradient:       0.000857951287
-mu(2tr(KS)-Ne):       0.000000000000
     Trial step:       0.606677283300
             Q1:     -39.463376564976
 Quadratic coef:       0.000080117726
 Linear coef   :      -0.000114320196
           Qmin:     -39.463383143454
Quadratic minimum step length (  0.432834710981) accepted
 1    -39.46334236250684 0.00000000000 0.00143259306 0.4328  0.000   20.00000000
      ideal mu1:       0.000000000000
-mu(2tr(KS)-Ne):       0.000000000000
             Q0:     -39.463383129852
DltNe tr(Dir*S):       0.000000000000
             G0:      -0.000026843551
   RMS gradient:       0.000323801925
-mu(2tr(KS)-Ne):       0.000000000000
     Trial step:       0.512436324411
             Q1:     -39.463392801580
 Quadratic coef:       0.000004083883
 Linear coef   :      -0.000013755611
           Qmin:     -39.463394712996
Quadratic minimum step length (  0.863011316428) accepted
 2    -39.46338312985216 0.00050963214 0.00054977111 0.8630  0.142   20.00000000
      ideal mu1:       0.000000000000
 3    -39.46339471307400 0.00040697893 0.00049937180 0.0000  0.000   20.00000000
Finished density kernel iterations (   3)

           ........................................................
           | *** NGWF optimisation not converged ***              |
           | RMS NGWF gradient =    0.00011871628084              |
           | Criteria not satisfied:                              |
           | -> RMS NGWF gradient higher than set threshold.      |
           ========================================================

------------------------------- NGWF line search -------------------------------
============ Calculation of NGWF S^-1 using Hotelling algorithm ================ 
         Iteration  |  Frobenius norm and Maximum abs value    (of I-S*S_n^-1)   
               1       0.13723123E-01     0.40961154E-02
               2       0.99125384E-04     0.36324095E-04
               3       0.68385046E-08     0.24910605E-08
               4       0.16103883E-14     0.66613381E-15
================================================================================
============ Calculation of NGWF S^-1 using Hotelling algorithm ================ 
         Iteration  |  Frobenius norm and Maximum abs value    (of I-S*S_n^-1)   
               1       0.66466805E-03     0.19025315E-03
               2       0.24099877E-06     0.86993955E-07
               3       0.42005348E-13     0.15543122E-13
================================================================================
RMS gradient                =       0.00011871628084
Trial step length           =               0.613370
Gradient along search dir.  =         -0.00113429194
Functional at step 0        =     -39.46339471307400
Functional at step 1        =     -39.46372594162422
Functional predicted        =     -39.46372670138818
Selected quadratic step     =               0.585367
Conjugate gradients coeff.  =               0.310642
--------------------------- NGWF line search finished --------------------------
                                               

################################################################################
########################### NGWF CG iteration  007 #############################
################################################################################
****** Reciprocal space K.E. preconditioning with k_zero =  3.0000 a0^-1 *******
   Initial electron number for spin 1:      20.00554990
     Final electron number for spin 1:      20.00000000

=================== Penalty functional idempotency correction ==================
 RMS occupancy error at iteration   1:  0.000498 (step -0.4995 Ne1=     20.0000)
 RMS occupancy error at iteration   2:  0.000001 (step -0.5000 Ne1=     20.0000)
            Final RMS occupancy error   :  0.000000 (Ne1=     20.0000)
               Final occupancy bounds   : [  0.0000,  1.0000]
================================================================================

................................................................................
<<<<<<<<<< LNV (Millam-Scuseria variant) density kernel optimisation >>>>>>>>>>>
~~~~~~~~~~~~~~~~~~~~~~~~~~~~~~~~~~~~~~~~~~~~~~~~~~~~~~~~~~~~~~~~~~~~~~~~~~~~~~~~
iter|       energy      |  rms DeltaK |  commutator |LScoef|CGcoef|      Ne    |
      ideal mu1:      -0.000000000006
-mu(2tr(KS)-Ne):       0.000000000000
             Q0:     -39.463740167510
DltNe tr(Dir*S):       0.000000000000
             G0:      -0.000065086159
   RMS gradient:       0.000504224960
-mu(2tr(KS)-Ne):       0.000000000000
     Trial step:       0.665010035199
             Q1:     -39.463751199552
 Quadratic coef:       0.000032250906
 Linear coef   :      -0.000043282949
           Qmin:     -39.463754689688
Quadratic minimum step length (  0.446244751773) accepted
 1    -39.46374016750963 0.00000000000 0.00086334908 0.4462  0.000   20.00000000
      ideal mu1:       0.000000000000
-mu(2tr(KS)-Ne):       0.000000000000
             Q0:     -39.463754685550
DltNe tr(Dir*S):       0.000000000000
             G0:      -0.000014098699
   RMS gradient:       0.000234675403
-mu(2tr(KS)-Ne):       0.000000000000
     Trial step:       0.544754291478
             Q1:     -39.463760524140
 Quadratic coef:       0.000001841737
 Linear coef   :      -0.000007680327
           Qmin:     -39.463762692586
Quadratic minimum step length (  1.135854577248) accepted
 2    -39.46375468555018 0.00030164081 0.00040866830 1.1359  0.217   20.00000000
      ideal mu1:       0.000000000000
 3    -39.46376269041595 0.00037390644 0.00042654339 0.0000  0.000   20.00000000
Finished density kernel iterations (   3)

           ........................................................
           | *** NGWF optimisation not converged ***              |
           | RMS NGWF gradient =    0.00006651560680              |
           | Criteria not satisfied:                              |
           | -> RMS NGWF gradient higher than set threshold.      |
           ========================================================

------------------------------- NGWF line search -------------------------------
============ Calculation of NGWF S^-1 using Hotelling algorithm ================ 
         Iteration  |  Frobenius norm and Maximum abs value    (of I-S*S_n^-1)   
               1       0.66488226E-02     0.22200602E-02
               2       0.20582866E-04     0.87548941E-05
               3       0.24590589E-09     0.10196377E-09
               4       0.12467326E-14     0.44408921E-15
================================================================================
============ Calculation of NGWF S^-1 using Hotelling algorithm ================ 
         Iteration  |  Frobenius norm and Maximum abs value    (of I-S*S_n^-1)   
               1       0.17176891E-03     0.56273097E-04
               2       0.14176269E-07     0.59575087E-08
               3       0.16220664E-14     0.66613381E-15
================================================================================
RMS gradient                =       0.00006651560680
Trial step length           =               0.599205
Gradient along search dir.  =         -0.00033157668
Functional at step 0        =     -39.46376269041595
Functional at step 1        =     -39.46385948168847
Functional predicted        =     -39.46385954549980
Selected quadratic step     =               0.584209
Conjugate gradients coeff.  =               0.000000
--------------------------- NGWF line search finished --------------------------
                                               

################################################################################
########################### NGWF CG iteration  008 #############################
################################################################################
****** Reciprocal space K.E. preconditioning with k_zero =  3.0000 a0^-1 *******
   Initial electron number for spin 1:      20.00243839
     Final electron number for spin 1:      20.00000000

=================== Penalty functional idempotency correction ==================
 RMS occupancy error at iteration   1:  0.000252 (step -0.4996 Ne1=     20.0000)
 RMS occupancy error at iteration   2:  0.000000 (step -0.5000 Ne1=     20.0000)
            Final RMS occupancy error   :  0.000000 (Ne1=     20.0000)
               Final occupancy bounds   : [  0.0000,  1.0000]
================================================================================

................................................................................
<<<<<<<<<< LNV (Millam-Scuseria variant) density kernel optimisation >>>>>>>>>>>
~~~~~~~~~~~~~~~~~~~~~~~~~~~~~~~~~~~~~~~~~~~~~~~~~~~~~~~~~~~~~~~~~~~~~~~~~~~~~~~~
iter|       energy      |  rms DeltaK |  commutator |LScoef|CGcoef|      Ne    |
      ideal mu1:       0.000000000000
-mu(2tr(KS)-Ne):       0.000000000000
             Q0:     -39.463862962814
DltNe tr(Dir*S):       0.000000000000
             G0:      -0.000011495864
   RMS gradient:       0.000211909697
-mu(2tr(KS)-Ne):       0.000000000000
     Trial step:       0.786614044784
             Q1:     -39.463866014696
 Quadratic coef:       0.000005990927
 Linear coef   :      -0.000009042808
           Qmin:     -39.463866375157
Quadratic minimum step length (  0.593664433456) accepted
 1    -39.46386296281412 0.00000000000 0.00037598735 0.5937  0.000   20.00000000
      ideal mu1:       0.000000000000
-mu(2tr(KS)-Ne):       0.000000000000
             Q0:     -39.463866374834
DltNe tr(Dir*S):       0.000000000000
             G0:      -0.000008958542
   RMS gradient:       0.000187062685
-mu(2tr(KS)-Ne):       0.000000000000
     Trial step:       0.683362847428
             Q1:     -39.463871647427
 Quadratic coef:       0.000000849341
 Linear coef   :      -0.000006121935
           Qmin:     -39.463877406349
Quadratic minimum step length (  2.462792466593) accepted
 2    -39.46386637483409 0.00015882724 0.00033628633 2.4628  0.779   20.00000000
      ideal mu1:       0.000000000000
 3    -39.46387733792153 0.00070072466 0.00031413199 0.0000  0.000   20.00000000
Finished density kernel iterations (   3)

           ........................................................
           | *** NGWF optimisation not converged ***              |
           | RMS NGWF gradient =    0.00003546117405              |
           | Criteria not satisfied:                              |
           | -> RMS NGWF gradient higher than set threshold.      |
           ========================================================

------------------------------- NGWF line search -------------------------------
============ Calculation of NGWF S^-1 using Hotelling algorithm ================ 
         Iteration  |  Frobenius norm and Maximum abs value    (of I-S*S_n^-1)   
               1       0.83131515E-02     0.27744626E-02
               2       0.31546057E-04     0.13417728E-04
               3       0.57570474E-09     0.23873570E-09
               4       0.13169614E-14     0.49960036E-15
================================================================================
============ Calculation of NGWF S^-1 using Hotelling algorithm ================ 
         Iteration  |  Frobenius norm and Maximum abs value    (of I-S*S_n^-1)   
               1       0.29850137E-02     0.98253382E-03
               2       0.41645889E-05     0.17554524E-05
               3       0.10451486E-10     0.42945647E-11
               4       0.11160650E-14     0.33306691E-15
================================================================================
RMS gradient                =       0.00003546117405
Trial step length           =               0.591659
Gradient along search dir.  =         -0.00010134062
Functional at step 0        =     -39.46387733792153
Functional at step 1        =     -39.46389109735913
Functional predicted        =     -39.46389679204128
Selected quadratic step     =               0.383935
Conjugate gradients coeff.  =               0.284223
--------------------------- NGWF line search finished --------------------------
                                               

################################################################################
########################### NGWF CG iteration  009 #############################
################################################################################
****** Reciprocal space K.E. preconditioning with k_zero =  3.0000 a0^-1 *******
   Initial electron number for spin 1:      20.00196590
     Final electron number for spin 1:      20.00000000

=================== Penalty functional idempotency correction ==================
 RMS occupancy error at iteration   1:  0.000208 (step -0.4996 Ne1=     20.0000)
 RMS occupancy error at iteration   2:  0.000000 (step -0.5000 Ne1=     20.0000)
            Final RMS occupancy error   :  0.000000 (Ne1=     20.0000)
               Final occupancy bounds   : [  0.0000,  1.0000]
================================================================================

................................................................................
<<<<<<<<<< LNV (Millam-Scuseria variant) density kernel optimisation >>>>>>>>>>>
~~~~~~~~~~~~~~~~~~~~~~~~~~~~~~~~~~~~~~~~~~~~~~~~~~~~~~~~~~~~~~~~~~~~~~~~~~~~~~~~
iter|       energy      |  rms DeltaK |  commutator |LScoef|CGcoef|      Ne    |
      ideal mu1:       0.000000000000
-mu(2tr(KS)-Ne):       0.000000000000
             Q0:     -39.463899113438
DltNe tr(Dir*S):       0.000000000000
             G0:      -0.000005915294
   RMS gradient:       0.000152008608
-mu(2tr(KS)-Ne):       0.000000000000
     Trial step:       1.297297526628
             Q1:     -39.463895933831
 Quadratic coef:       0.000010853503
 Linear coef   :      -0.000007673896
           Qmin:     -39.463900469882
Quadratic minimum step length (  0.458622731706) accepted
 1    -39.46389911343834 0.00000000000 0.00025419420 0.4586  0.000   20.00000000
      ideal mu1:       0.000000000000
-mu(2tr(KS)-Ne):       0.000000000000
             Q0:     -39.463900469525
DltNe tr(Dir*S):       0.000000000000
             G0:      -0.000001532047
   RMS gradient:       0.000077367371
-mu(2tr(KS)-Ne):       0.000000000000
     Trial step:       0.771343072502
             Q1:     -39.463901139121
 Quadratic coef:       0.000000512138
 Linear coef   :      -0.000001181734
           Qmin:     -39.463901151224
Quadratic minimum step length (  0.889918585475) accepted
 2    -39.46390046952523 0.00009191509 0.00013410865 0.8899  0.259   20.00000000
      ideal mu1:       0.000000000000
 3    -39.46390115123094 0.00010296637 0.00010779882 0.0000  0.000   20.00000000
Finished density kernel iterations (   3)

           ........................................................
           | *** NGWF optimisation not converged ***              |
           | RMS NGWF gradient =    0.00001687176463              |
           | Criteria not satisfied:                              |
           | -> RMS NGWF gradient higher than set threshold.      |
           ========================================================

------------------------------- NGWF line search -------------------------------
WARNING: slope along search direction is positive:    0.243887E-04
         Resetting conjugate gradients!
WARNING: slope along search direction is still positive.
         Reversing search direction!!
============ Calculation of NGWF S^-1 using Hotelling algorithm ================ 
         Iteration  |  Frobenius norm and Maximum abs value    (of I-S*S_n^-1)   
               1       0.43905156E-02     0.15250455E-02
               2       0.83850327E-05     0.35143170E-05
               3       0.34518872E-10     0.14096058E-10
               4       0.15563506E-14     0.44408921E-15
================================================================================
============ Calculation of NGWF S^-1 using Hotelling algorithm ================ 
         Iteration  |  Frobenius norm and Maximum abs value    (of I-S*S_n^-1)   
               1       0.18431225E-02     0.64234161E-03
               2       0.14696635E-05     0.61463497E-06
               3       0.10460196E-11     0.42454928E-12
================================================================================
RMS gradient                =       0.00001687176463
Trial step length           =               0.476612
Gradient along search dir.  =         -0.00002133329
Functional at step 0        =     -39.46390115123094
Functional at step 1        =     -39.46390249931003
Functional predicted        =     -39.46390408168954
Selected quadratic step     =               0.274731
Conjugate gradients coeff.  =              -0.226368
--------------------------- NGWF line search finished --------------------------
                                               

################################################################################
########################### NGWF CG iteration  010 #############################
################################################################################
****** Reciprocal space K.E. preconditioning with k_zero =  3.0000 a0^-1 *******
   Initial electron number for spin 1:      19.99884078
     Final electron number for spin 1:      20.00000000

=================== Penalty functional idempotency correction ==================
 RMS occupancy error at iteration   1:  0.000114 (step -0.5002 Ne1=     20.0000)
            Final RMS occupancy error   :  0.000000 (Ne1=     20.0000)
               Final occupancy bounds   : [  0.0000,  1.0000]
================================================================================

................................................................................
<<<<<<<<<< LNV (Millam-Scuseria variant) density kernel optimisation >>>>>>>>>>>
~~~~~~~~~~~~~~~~~~~~~~~~~~~~~~~~~~~~~~~~~~~~~~~~~~~~~~~~~~~~~~~~~~~~~~~~~~~~~~~~
[...]
iter|       energy      |  rms DeltaK |  commutator |LScoef|CGcoef|      Ne    |
      ideal mu1:      -0.000000000746
-mu(2tr(KS)-Ne):       0.000000000000
             Q0:     -39.463906248687
DltNe tr(Dir*S):       0.000000000000
             G0:      -0.000001106682
   RMS gradient:       0.000065749340
-mu(2tr(KS)-Ne):       0.000000000000
     Trial step:       0.877637275568
             Q1:     -39.463906255001
 Quadratic coef:       0.000000964951
 Linear coef   :      -0.000000971265
           Qmin:     -39.463906493092
Quadratic minimum step length (  0.441689998420) accepted
 1    -39.46390624868690 0.00000000000 0.00011449086 0.4417  0.000   20.00000000
      ideal mu1:       0.000000000000
-mu(2tr(KS)-Ne):       0.000000000000
             Q0:     -39.463906493105
DltNe tr(Dir*S):       0.000000000000
             G0:      -0.000000348078
   RMS gradient:       0.000036873332
-mu(2tr(KS)-Ne):       0.000000000000
     Trial step:       0.622610317019
             Q1:     -39.463906673998
 Quadratic coef:       0.000000035825
 Linear coef   :      -0.000000216717
           Qmin:     -39.463906820856
Quadratic minimum step length (  1.883200061173) accepted
 2    -39.46390649310527 0.00003843516 0.00006651651 1.8832  0.315   20.00000000
      ideal mu1:       0.000000000000
 3    -39.46390682080251 0.00009230407 0.00008594412 0.0000  0.000   20.00000000
Finished density kernel iterations (   3)

           ........................................................
           | *** NGWF optimisation not converged ***              |
           | RMS NGWF gradient =    0.00000345945429              |
           | Criteria not satisfied:                              |
           | -> RMS NGWF gradient higher than set threshold.      |
           ========================================================

------------------------------- NGWF line search -------------------------------
============ Calculation of NGWF S^-1 using Hotelling algorithm ================ 
         Iteration  |  Frobenius norm and Maximum abs value    (of I-S*S_n^-1)   
               1       0.12989532E-02     0.44659535E-03
               2       0.74418349E-06     0.30861666E-06
               3       0.28838048E-12     0.11524115E-12
================================================================================
============ Calculation of NGWF S^-1 using Hotelling algorithm ================ 
         Iteration  |  Frobenius norm and Maximum abs value    (of I-S*S_n^-1)   
               1       0.12496540E-02     0.42961843E-03
               2       0.68872480E-06     0.28564478E-06
               3       0.24734513E-12     0.98809849E-13
================================================================================
============ Calculation of NGWF S^-1 using Hotelling algorithm ================ 
         Iteration  |  Frobenius norm and Maximum abs value    (of I-S*S_n^-1)   
               1       0.11241720E-06     0.38743593E-07
               2       0.55610161E-14     0.24424907E-14
================================================================================
RMS gradient                =       0.00000345945429
Trial step length           =               0.109815
Gradient along search dir.  =         -0.00000081648
Functional at step 0        =     -39.46390682080251
Functional at step 1        =     -39.46390572830995
Rejected quadratic step     =               0.004165
Functional at new step 1    =     -39.46390682250651
Functional predicted        =     -39.46390682250652
Selected quadratic step     =               0.004174
Conjugate gradients coeff.  =              -0.220991
--------------------------- NGWF line search finished --------------------------
                                               

################################################################################
########################### NGWF CG iteration  012 #############################
################################################################################
****** Reciprocal space K.E. preconditioning with k_zero =  3.0000 a0^-1 *******
   Initial electron number for spin 1:      20.00002070
     Final electron number for spin 1:      20.00000000

=================== Penalty functional idempotency correction ==================
 RMS occupancy error at iteration   1:  0.000002 (step -0.5000 Ne1=     20.0000)
            Final RMS occupancy error   :  0.000000 (Ne1=     20.0000)
               Final occupancy bounds   : [  0.0000,  1.0000]
================================================================================

................................................................................
<<<<<<<<<< LNV (Millam-Scuseria variant) density kernel optimisation >>>>>>>>>>>
~~~~~~~~~~~~~~~~~~~~~~~~~~~~~~~~~~~~~~~~~~~~~~~~~~~~~~~~~~~~~~~~~~~~~~~~~~~~~~~~
iter|       energy      |  rms DeltaK |  commutator |LScoef|CGcoef|      Ne    |
      ideal mu1:      -0.000000000018
-mu(2tr(KS)-Ne):       0.000000000000
             Q0:     -39.463906822746
DltNe tr(Dir*S):       0.000000000000
             G0:      -0.000000639629
   RMS gradient:       0.000049985521
-mu(2tr(KS)-Ne):       0.000000000000
     Trial step:       1.082820293076
             Q1:     -39.463906852008
 Quadratic coef:       0.000000663342
 Linear coef   :      -0.000000692604
           Qmin:     -39.463907003535
Quadratic minimum step length (  0.565293382069) accepted
 1    -39.46390682274573 0.00000000000 0.00008483395 0.5653  0.000   20.00000000
      ideal mu1:       0.000000000000
-mu(2tr(KS)-Ne):       0.000000000000
             Q0:     -39.463907003534
DltNe tr(Dir*S):       0.000000000000
             G0:      -0.000000156306
   RMS gradient:       0.000024709716
-mu(2tr(KS)-Ne):       0.000000000000
     Trial step:       0.782375322749
             Q1:     -39.463907073817
 Quadratic coef:       0.000000052007
 Linear coef   :      -0.000000122290
           Qmin:     -39.463907075423
Quadratic minimum step length (  0.919845792075) accepted
 2    -39.46390700353393 0.00003982323 0.00004394742 0.9198  0.244   20.00000000
      ideal mu1:       0.000000000000
 3    -39.46390707541892 0.00003091951 0.00004408463 0.0000  0.000   20.00000000
Finished density kernel iterations (   3)

           ........................................................
           | *** NGWF optimisation not converged ***              |
           | RMS NGWF gradient =    0.00000410273421              |
           | Criteria not satisfied:                              |
           | -> RMS NGWF gradient higher than set threshold.      |
           ========================================================

------------------------------- NGWF line search -------------------------------
============ Calculation of NGWF S^-1 using Hotelling algorithm ================ 
         Iteration  |  Frobenius norm and Maximum abs value    (of I-S*S_n^-1)   
               1       0.14836199E-03     0.51263297E-04
               2       0.96690324E-08     0.40248409E-08
               3       0.11991668E-14     0.55511151E-15
================================================================================
============ Calculation of NGWF S^-1 using Hotelling algorithm ================ 
         Iteration  |  Frobenius norm and Maximum abs value    (of I-S*S_n^-1)   
               1       0.10837608E-03     0.37449790E-04
               2       0.51588141E-08     0.21474358E-08
               3       0.13373812E-14     0.44408921E-15
================================================================================
RMS gradient                =       0.00000410273421
Trial step length           =               0.021410
Gradient along search dir.  =         -0.00000039751
Functional at step 0        =     -39.46390707541892
Functional at step 1        =     -39.46390706813468
Functional predicted        =     -39.46390707656534
Selected quadratic step     =               0.005768
Conjugate gradients coeff.  =              -1.406474
--------------------------- NGWF line search finished --------------------------
                                               

################################################################################
########################### NGWF CG iteration  013 #############################
################################################################################
****** Reciprocal space K.E. preconditioning with k_zero =  3.0000 a0^-1 *******
   Initial electron number for spin 1:      19.99998284
     Final electron number for spin 1:      20.00000000

=================== Penalty functional idempotency correction ==================
 RMS occupancy error at iteration   1:  0.000002 (step -0.5000 Ne1=     20.0000)
            Final RMS occupancy error   :  0.000000 (Ne1=     20.0000)
               Final occupancy bounds   : [  0.0000,  1.0000]
================================================================================

................................................................................
<<<<<<<<<< LNV (Millam-Scuseria variant) density kernel optimisation >>>>>>>>>>>
~~~~~~~~~~~~~~~~~~~~~~~~~~~~~~~~~~~~~~~~~~~~~~~~~~~~~~~~~~~~~~~~~~~~~~~~~~~~~~~~
iter|       energy      |  rms DeltaK |  commutator |LScoef|CGcoef|      Ne    |
      ideal mu1:      -0.000000000012
-mu(2tr(KS)-Ne):       0.000000000000
             Q0:     -39.463907076723
DltNe tr(Dir*S):       0.000000000000
             G0:      -0.000000178330
   RMS gradient:       0.000026393245
-mu(2tr(KS)-Ne):       0.000000000000
     Trial step:       0.848330506615
             Q1:     -39.463907112194
 Quadratic coef:       0.000000115813
 Linear coef   :      -0.000000151283
           Qmin:     -39.463907126128
Quadratic minimum step length (  0.554075833358) accepted
 1    -39.46390707672339 0.00000000000 0.00004467929 0.5541  0.000   20.00000000
      ideal mu1:       0.000000000000
-mu(2tr(KS)-Ne):       0.000000000000
             Q0:     -39.463907126127
DltNe tr(Dir*S):       0.000000000000
             G0:      -0.000000094995
   RMS gradient:       0.000019263185
-mu(2tr(KS)-Ne):       0.000000000000
     Trial step:       0.685594218482
             Q1:     -39.463907175434
 Quadratic coef:       0.000000015821
 Linear coef   :      -0.000000065128
           Qmin:     -39.463907193151
Quadratic minimum step length (  1.411099518094) accepted
 2    -39.46390712612730 0.00001937151 0.00003463221 1.4111  0.533   20.00000000
      ideal mu1:       0.000000000000
-mu(2tr(KS)-Ne):       0.000000000000
             Q0:     -39.463907193149
DltNe tr(Dir*S):       0.000000000000
             G0:      -0.000000133339
   RMS gradient:       0.000022822591
-mu(2tr(KS)-Ne):       0.000000000000
     Trial step:       0.983586128058
             Q1:     -39.463907286713
 Quadratic coef:       0.000000037587
 Linear coef   :      -0.000000131151
           Qmin:     -39.463907307555
Quadratic minimum step length (  1.716009519473) accepted
 3    -39.46390719314930 0.00003919536 0.00003685540 1.7160  1.404   20.00000000
      ideal mu1:       0.000000000000
 4    -39.46390730749837 0.00007728655 0.00000768090 0.0000  0.000   20.00000000
Finished density kernel iterations (   4)

           ........................................................
           | *** NGWF optimisation not converged ***              |
           | RMS NGWF gradient =    0.00000324760957              |
           | Criteria not satisfied:                              |
           | -> RMS NGWF gradient higher than set threshold.      |
           ========================================================

------------------------------- NGWF line search -------------------------------
WARNING: slope along search direction is positive:    0.826589E-06
         Resetting conjugate gradients!
WARNING: slope along search direction is still positive.
         Reversing search direction!!
============ Calculation of NGWF S^-1 using Hotelling algorithm ================ 
         Iteration  |  Frobenius norm and Maximum abs value    (of I-S*S_n^-1)   
               1       0.10679663E-03     0.36763340E-04
               2       0.50144864E-08     0.20802824E-08
               3       0.19017980E-14     0.11102230E-14
================================================================================
============ Calculation of NGWF S^-1 using Hotelling algorithm ================ 
         Iteration  |  Frobenius norm and Maximum abs value    (of I-S*S_n^-1)   
               1       0.49097949E-04     0.16903206E-04
               2       0.10596253E-08     0.43960235E-09
               3       0.14096211E-14     0.44408921E-15
================================================================================
RMS gradient                =       0.00000324760957
Trial step length           =               0.011113
Gradient along search dir.  =         -0.00000079043
Functional at step 0        =     -39.46390730749837
Functional at step 1        =     -39.46390730815142
Functional predicted        =     -39.46390730987070
Selected quadratic step     =               0.006003
Conjugate gradients coeff.  =               0.626586
--------------------------- NGWF line search finished --------------------------
                                               

################################################################################
########################### NGWF CG iteration  014 #############################
################################################################################
****** Reciprocal space K.E. preconditioning with k_zero =  3.0000 a0^-1 *******
   Initial electron number for spin 1:      19.99997593
     Final electron number for spin 1:      20.00000000

=================== Penalty functional idempotency correction ==================
 RMS occupancy error at iteration   1:  0.000002 (step -0.5000 Ne1=     20.0000)
            Final RMS occupancy error   :  0.000000 (Ne1=     20.0000)
               Final occupancy bounds   : [  0.0000,  1.0000]
================================================================================

................................................................................
<<<<<<<<<< LNV (Millam-Scuseria variant) density kernel optimisation >>>>>>>>>>>
~~~~~~~~~~~~~~~~~~~~~~~~~~~~~~~~~~~~~~~~~~~~~~~~~~~~~~~~~~~~~~~~~~~~~~~~~~~~~~~~
iter|       energy      |  rms DeltaK |  commutator |LScoef|CGcoef|      Ne    |
      ideal mu1:      -0.000000000024
-mu(2tr(KS)-Ne):       0.000000000000
             Q0:     -39.463907310198
DltNe tr(Dir*S):       0.000000000000
             G0:      -0.000000005580
   RMS gradient:       0.000004668578
-mu(2tr(KS)-Ne):       0.000000000000
     Trial step:       1.299170180911
             Q1:     -39.463907308026
 Quadratic coef:       0.000000009422
 Linear coef   :      -0.000000007249
           Qmin:     -39.463907311593
Quadratic minimum step length (  0.499789876673) accepted
 1    -39.46390731019833 0.00000000000 0.00000767147 0.4998  0.000   20.00000000
      ideal mu1:       0.000000000000
-mu(2tr(KS)-Ne):       0.000000000000
             Q0:     -39.463907311593
DltNe tr(Dir*S):       0.000000000000
             G0:      -0.000000000301
   RMS gradient:       0.000001083903
-mu(2tr(KS)-Ne):       0.000000000000
     Trial step:       0.805799047217
             Q1:     -39.463907311630
 Quadratic coef:       0.000000000205
 Linear coef   :      -0.000000000242
           Qmin:     -39.463907311664
Quadratic minimum step length (  0.475536661874) accepted
 2    -39.46390731159273 0.00000347169 0.00000178844 0.4755  0.054   20.00000000
      ideal mu1:       0.000000000000
-mu(2tr(KS)-Ne):       0.000000000000
             Q0:     -39.463907311665
DltNe tr(Dir*S):       0.000000000000
             G0:      -0.000000000038
   RMS gradient:       0.000000387005
-mu(2tr(KS)-Ne):       0.000000000000
     Trial step:       0.619020992418
             Q1:     -39.463907311675
 Quadratic coef:       0.000000000013
 Linear coef   :      -0.000000000024
           Qmin:     -39.463907311676
Quadratic minimum step length (  0.561615072458) accepted
 3    -39.46390731166480 0.00000072779 0.00000063062 0.5616  0.127   20.00000000
      ideal mu1:       0.000000000000
 4    -39.46390731167401 0.00000034420 0.00000029013 0.0000  0.000   20.00000000
Finished density kernel iterations (   4)

           ........................................................
           | *** NGWF optimisation converged ***                  |
           | RMS NGWF gradient =    0.00000072888042              |
           | Criteria satisfied:                                  |
           | -> RMS NGWF gradient lower than set threshold.       |
           ========================================================

================================================================================
           ---------------- ENERGY COMPONENTS (Eh) ----------------
           | Kinetic                    :       26.01598831762433 |
           | Pseudopotential (local)    :     -145.82405571213388 |
           | Pseudopotential (non-local):        7.82420041850319 |
           | Hartree                    :       57.49388737575075 |
           | Exchange-correlation       :       -9.46577931764411 |
           | Ewald                      :       24.49185160622570 |
           | Total                      :      -39.46390731167402 |
           --------------------------------------------------------
           ------ LOCAL ENERGY COMPONENTS FROM MATRIX TRACES ------
           | Pseudopotential (local)    :     -145.82405571213255 |
           | Hartree                    :       57.49388737574974 |
           --------------------------------------------------------
           Integrated density           :       20.00000000000003
           Integrated density tr(KS)    :       20.00000000000000
================================================================================


                    <<<<< CALCULATION SUMMARY >>>>>
|ITER|    RMS GRADIENT   |     TOTAL ENERGY    |   step   |     Epredicted      
   1     0.00560011692876    -38.69416911498625   0.494093    -39.27481267239052
   2     0.00186924006161    -39.36629433648565   0.593990    -39.43824425011084
   3     0.00074799566325    -39.44454322836599   0.613042    -39.45751325275882
   4     0.00038441828233    -39.45799201784307   0.693883    -39.46193386119805
   5     0.00021300037129    -39.46214650124529   0.649143    -39.46330901017681
   6     0.00011871628084    -39.46339471307400   0.585367    -39.46372670138818
   7     0.00006651560680    -39.46376269041595   0.584209    -39.46385954549980
   8     0.00003546117405    -39.46387733792153   0.383935    -39.46389679204128
   9     0.00001687176463    -39.46390115123094   0.274731    -39.46390408168954
  10     0.00000735902651    -39.46390617090661   0.033326    -39.46390623853619
  11     0.00000345945429    -39.46390682080251   0.004174    -39.46390682250652
  12     0.00000410273421    -39.46390707541892   0.005768    -39.46390707656534
  13     0.00000324760957    -39.46390730749837   0.006003    -39.46390730987070
  14     0.00000072888042    -39.46390731167401  <-- CG                         
 
<QC>        [NGWF iterations]:       14
<QC>           [total_energy]:      -39.46390731
<QC>                     [F0]:      -39.46390731
<QC>                     [F1]:      -39.46390731
<QC>                     [F2]:        0.00000000
<QC>   [predicted_functional]:      -39.46390731
<QC>           [rms_gradient]:        0.000000728880
<QC>                 [G_init]:       -0.000000790432
<QC>        [quadratic_coeff]:        0.006003
<QC>            [cubic_coeff]:        0.000000
<QC>               [cg_coeff]:        0.626586
<QC>           [trial_length]:        0.011113

------------------------------ TIMING INFORMATION ------------------------------
TOTAL TIME:     528.533s on     4 node(s)

Job completed: 28-05-2011 01:08 (+0100)

