Defaulting to ethernet
No MPI process pinning
Starting MPD ring...
PBS has allocated the following nodes:
cx1-8-5-1
cx1-8-5-1
cx1-8-5-1
cx1-8-5-1
---
mpiexec.intel -genv I_MPI_DEVICE ssm -genv I_MPI_DEBUG 0 -genv I_MPI_PIN no -genv I_MPI_PIN_MODE none -genv I_MPI_FALLBACK_DEVICE disable -genv DAPL_MAX_CM_RETRIES 500 -genv DAPL_MAX_CM_RESPONSE_TIME 300 -genv I_MPI_DAPL_CONNECTION_TIMEOUT 300 -machinefile /tmp/pbs.5705176.cx1/tmp.NsUJx25352 -n 4 -wdir /home/nhine/ONETEP/devel/tests/test17 /home/nhine/ONETEP/devel/bin/onetep.cx1 hchain

Job output begins below
-----------------------
 +---------------------------------------------------------------+
 |                                                               |
 |        ####### #     # ####### ####### ####### ######         |
 |        #     # ##    # #          #    #       #     #        |
 |        #     # # #   # #          #    #       #     #        |
 |        #     # #  #  # #####      #    #####   ######         |
 |        #     # #   # # #          #    #       #              |
 |        #     # #    ## #          #    #       #              |
 |        ####### #     # #######    #    ####### #              |
 |                                                               |
 |        Linear-Scaling Ab Initio Total Energy Program          |
 |                                                               |
 |          Release for academic collaborators of ODG            |
 |                                              Version 3.0      |
 |                                                               |
 +---------------------------------------------------------------+
 |                                                               |
 |  Authors:                                                     |
 |  Peter D. Haynes, Nicholas D. M. Hine, Arash. A. Mostofi,     |
 |  Mike C. Payne and Chris-Kriton Skylaris                      |
 |                                                               |
 |  Contributors:                                                |
 |  P. W. Avraam, S. J. Clark, O. Dieguez, S. M. M. Dubois,      |
 |  J. Dziedzic, H. H. Helal, Q. O. Hill, D. D. O`Regan,         |
 |  C. J. Pickard, M. I. J. Probert, L. Ratcliff, M. Robinson    |
 |  and A. Ruiz Serrano                                          |
 |                                                               |
 |                                   Copyright (c) 2004-2011     |
 |                                                               |
 |  Please cite:                                                 |
 |  "Introducing ONETEP: Linear-scaling density functional       |
 |   simulations on parallel computers".                         |
 |   C.-K. Skylaris, P. D. Haynes, A. A. Mostofi, M. C. Payne.   |
 |   J. Chem. Phys. 122 084119 (2005).                           |
 |                                                               |
 |          in all publications arising from your use of ONETEP. |
 |                                                               |
 +---------------------------------------------------------------+
 |                                                               |
 |   ONETEP is based on developments described in the following  |
 |   publications:                                               |
 |                                                               |
 |  "Nonorthogonal generalized Wannier function pseudopotential  |
 |   plane-wave method".                                         |
 |   C.-K. Skylaris, A. A. Mostofi, P. D. Haynes, O. Dieguez,    |
 |   M. C. Payne.                                                |
 |   Phys. Rev. B 66 035119 (2002).                              |
 |                                                               |
 |  "Preconditioned iterative minimization for linear-scaling    |
 |   electronic structure calculations".                         |
 |   A. A. Mostofi, P. D. Haynes, C.-K. Skylaris, M. C. Payne.   |
 |   J. Chem. Phys. 119(17), pp.8842-8848 (2003).                |
 |                                                               |
 |  "Total-energy calculations on a real space grid with         |
 |   localized functions and a plane-wave basis".                |
 |   A. A. Mostofi, C.-K. Skylaris, P. D. Haynes, M. C. Payne.   |
 |   Comput. Phys. Commun. 147, pp.788-802 (2002).               |
 |                                                               |
 |  "Accurate kinetic energy evaluation in electronic structure  |
 |   calculations with localized functions on real space grids"  |
 |   C.-K. Skylaris, A. A. Mostofi, P. D. Haynes, C. J. Pickard, |
 |   M. C. Payne.                                                |
 |   Comput. Phys. Commun. 140, pp.315-322 (2001).               |
 |                                                               |
 +---------------------------------------------------------------+

Job started: 28-05-2011 01:31 (+0100)

Running on     4 processors.

Reading parameters from file "hchain.dat" ...... done
Reading geometry and species blocks from file "hchain.dat" ...    
  PSINC grid spacing along a1 set to   0.500000000000a0 from input file.
  PSINC grid spacing along a2 set to   0.500000000000a0 from input file.
  PSINC grid spacing along a3 set to   0.500000000000a0 from input file.
... done
-------------------------------------------------------------------------------
---------------------------- RUN-TIME PARAMETERS ------------------------------
-------------------------------------------------------------------------------
task                       : SINGLEPOINT *! Type of calculation (String)        
cutoffenergy               : 20.0000000000000      hartree *! Plane wave kineti 
kernelcutoff               : 1000.00000000000 *! Density kernel radius in Bohr  
xcfunctional               : LDA *! Exchange-correlation functional (String)    
libxcxfuncid               : 0 *! Functional identifier for which exchange func 
libxccfuncid               : 0 *! Functional identifier for which correlation f 
charge                     : 0.000000000000000E+000 *! The total charge of the  
spin                       : 20 *! Total spin of system (Integer)               
spinpolarized              : F *! Switch for spin polarization (Boolean)        
spinpolarised              : F *! Switch for spin polarisation (Boolean)        
constantefield             : 0.0 0.0 0.0 *! Cartesian coordinates of constant e 
fftboxpref                 : 45 45 45 *! Preferred FFT box dimensions (String)  
ppdnpoints                 : 0 0 0 *! PPD edge length in grid points for each l 
psincspacing               : 0.5 0.5 0.5 *! PSINC grid spacing in atomic units  
oldinput                   : F *! Read old-format input file (Boolean)          
develcode                  : *! For development code only (String)              
nnho                       : F *! Initialise NGWFs to nonorthogonal natural hyb 
ngwfhalo                   : -1.00000000000000 *! Halo extension to NGWF radii  
nonscforces                : F *! Include non self-consistent forces due to NGW 
maxitpalsermano            : 50 *! Maximum number of iterations for Palser-Mano 
maxitpen                   : 3 *! Max number of penalty functional iterations ( 
penparam                   : 4.00000000000000 *! Penalty functional parameter ( 
minitlnv                   : 4 *! Min number of LNV iterations (Integer)        
maxitlnv                   : 4 *! Max number of LNV iterations (Integer)        
maxitlnvcoarse             : 0 *! Max number of low-accuracy LNV iterations (In 
lnvthresholdorig           : 1.000000000000000E-009 *! LNV convergence threshol 
lnvcgtype                  : LNV_FLETCHER *! Type of CG coefficient for LNV den 
lnvcgmaxstep               : 3.00000000000000 *! Maximum length of trial step f 
exactlnv                   : T *! Use original LNV algorithm (Boolean)          
oldlnv                     : F *! Use LNV algorithm backwards compatible pre De 
lnvchecktrialsteps         : F *! Check stability of kernel at each trial step  
kerfix                     : 1 *! Density kernel fixing approach (Integer)      
maxitkernelfix             : 3 *! Maximum # iterations of Penalty Functional id 
initialdensrealspace       : F *! Construct initial density in real space from  
kerneldiis                 : F *! Use kernel DIIS in the inner loop (Boolean)   
kerneldiistype             : P *! Density mixing method (String)                
kerneldiismax              : 10 *! Max number of kernels saved during kernel DI 
kerneldiismaxit            : 25 *! Max number of kernel DIIS iterations (Intege 
kerneldiisthres            : 1.000000000000000E-009 *! Density mixing convergen 
kerneldiisliter            : 5 *! Number of linear mixing iterations (Integer)  
kerneldiiscin              : 0.900000000000000 *! Coefficient for the input ker 
kerneldiiscriteria         : 1000 *! Density mixing convergence criteria (Strin 
maxitngwfcg                : 30 *! Max number of NGWF conjugate gradients (CG)  
ngwfcgtype                 : NGWF_FLETCHER *! Type of CG coefficient for NGWF o 
ngwfcgmaxstep              : 4.00000000000000 *! Maximum length of trial step f 
eleccgmax                  : 5 *! Number of NGWF iterations to reset CG (Intege 
precondscheme              : TETER *! Recip-space preconditioning scheme (Strin 
kzero                      : 3.00000000000000 *! KE preconditioning parameter ( 
rprecond                   : 2.00000000000000 *! Radial cut-off for real-space  
precondrecip               : T *! Recip-space KE preconditioning (Boolean)      
precondreal                : F *! Real-space KE preconditioning (Boolean)       
smoothscheme               : NONE *! Smoothing scheme for the NGWF gradients at 
rsmooth                    : 1.50000000000000      bohr *! Radius of the unshav 
ksmooth                    : 5.00000000000000 *! Characteristic wavelength of t 
occmix                     : 0.250000000000000 *! Mix fraction of occupancy pre 
kernelupdate               : F *! Update density kernel during NGWF line search 
kernelchristoffelupdate    : F *! Update density kernel during NGWF line search 
maxithotelling             : 50 *! Number of Hotelling iteration per NGWF chang 
maxresidhotelling          : 1.000000000000000E-012 *! Max allowed value in Hot 
maxitngwfdiis              : 0 *! Max number of NGWF DIIS steps (Integer)       
ngwfdiissize               : 4 *! Max size of the DIIS iterative subspace (Inte 
ngwfdiisreset              : 8 *! Max number of iteration for the resetting of  
ngwfdiismaxstep            : 2.00000000000000 *! Max length of trial step for N 
ngwfthresholdorig          : 2.000000000000000E-006 *! NGWF convergence thresho 
elecenergytol              : -1.000000000000000E-003 hartree *! Tolerance on to 
elecforcetol               : -1.000000000000000E-003 ha/bohr *! Tolerance on ma 
ngwfmaxgrad                : -2.000000000000000E-005 *! Maximum permissible val 
deltaeconv                 : T *! Use consecutive energy gains as a criterion f 
locpotintbatchsize         : 10 *! Size of NGWF in fftbox batch for locpot inte 
kineticintbatchsize        : 10 *! Size of NGWF in fftbox batch for kinetic int 
densitybatchsize           : 10 *! Size of NGWF in fftbox batch for charge dens 
ngwfgradbatchsize          : 10 *! Size of NGWF in fftbox batch for NGWF gradie 
densethreshold             : 0.400000000000000 *! Threshold for matrix segment  
commsgroupsize             : 4 *! Number of nodes in a group (determines comms  
ovlpfornonlocal            : F *! Overlap sparsity for nonlocal (Boolean)       
usespacefillingcurve       : T *! Re-arrange atoms according to space-filling c 
corehamdenskernguess       : T *! Initial guess for density kernel from core Ha 
checkatoms                 : T *! Check atoms on top of each other (Boolean)    
locpotscheme               : FULL *! Scheme for evaluating local potential matr 
smoothprojectors           : -0.400000000000000 *! Halfwidth of Gaussian filter 
smoothlocpspot             : -0.400000000000000 *! Halfwidth of Gaussian filter 
oddpsincgrid               : F *! Force odd number of points in simcell psinc g 
evenpsincgrid              : F *! Force even number of points in simcell psinc  
realspaceprojectors        : F *! Whether to evaluate and store projectors in r 
outputdetail               : VERBOSE *! Level of output detail (String)         
pawoutputdetail            : DEFAULT *! Level of output detail for PAW: BRIEF,  
timingslevel               : 1 *! Level of timings output: 0(none) 1(nodes summ 
writeparams                : T *! Output runtime parameters at startup (Boolean 
writeforces                : F *! Write ionic forces (Boolean)                  
writepositions             : T *! Write ionic positions each geometry or MD ste 
writexyz                   : F *! Output coordinates in .xyz file (Boolean)     
printqc                    : T *! Print Quality Control information (Boolean)   
cubeformat                 : F *! Allow .cube format for plot outputs (Boolean) 
dxformat                   : F *! Allow .dx format for plot outputs (Boolean)   
dxformatcoarse             : F *! Output only points on the coarse grid (Boolea 
dxformatdigits             : 7 *! Number of significant digits in .dx output (I 
grdformat                  : T *! Allow .grd format for plot outputs (Boolean)  
writedensityplot           : F *! Write the charge density in plotting format ( 
writengwfplot              : F *! Write NGWFs in plotting format (Boolean)      
writengwfgradplot          : F *! Write NGWF Gradients in plotting format (Bool 
writengwfradial            : F *! Write NGWFs radial distributions (Boolean)    
writengwfgradradial        : F *! Write NGWFs gradients radial distributions (B 
writeradialstep            : 5.000000000000000E-003 bohr *! Define the grid ste 
writeradialsmear           : 1.000000000000000E-002 bohr *! Define the gaussian 
readdenskern               : F *! Read density kernel restart information (Bool 
writedenskern              : F *! Write density kernel restart information (Boo 
readtightboxngwfs          : F *! Read in universal tightbox NGWFs restart info 
writetightboxngwfs         : F *! Write in universal tightbox NGWFs restart inf 
writeconvergeddkngwfs      : F *! Only write Density Kernel and NGWFs upon conv 
readswngwfs                : F *! Read NGWFs restart information in spherical w 
writeswngwfs               : F *! Write NGWFs restart information in spherical  
writemaxl                  : 3 *! Maximum angular momentum number when writing  
readmaxl                   : 3 *! Maximum angular momentum number when reading  
extransw                   : 0 *! Maximum number of zeros of the sph Bessel fun 
paw                        : F *! Uses a PAW construction to find correct core  
finegridscale              : 2.00000000000000 *! Ratio of size of fine grid to  
dblgridscale               : 2.00000000000000 *! Ratio of charge density / pote 
augfuncsrecip              : T *! Construct Augmentation functions in recip spa 
dispersion                 : 0 *! Select dispersion correction (Integer)        
vdwdcoeff                  : -1.00000000000000 *! Replacement VDW damping coeff 
hubbardmaxiter             : 0 *! Maximum number of DFT+U projector optimisatio 
hubbardenergytol           : 1.000000000000000E-008 hartree *! Energy tolerance 
hubbardconvwin             : 2 *! Energy convergence window when using DFT+U pr 
hubbardprojmixing          : 0.000000000000000E+000 *! Proportion of old Hubbar 
hubbardfunctional          : 1 *! DFT+U energy functional to use (Integer)      
hubbardtensorcorr          : 1 *! DFT+U projector tensorial correction to use ( 
hubbardngwfspinthreshold   : 2.000000000000000E-005 *! NGWF RMS  gradient thres 
coulombcutoffradius        : 0.000000000000000E+000 *! Radius of sphere or cyli 
coulombcutofflength        : 0.000000000000000E+000 *! Length of cylinder or wi 
coulombcutofftype          : NONE *! Type of cutoff coulomb interaction: NONE,  
coulombcutoffwriteint      : F *! Write real-space cutoff Coulomb interaction s 
pbccorrectioncutoff        : 0.000000000000000E+000 *! alpha*L cutoff parameter 
doproperties               : T *! Allow calculation of properties (Boolean)     
numeigenvalues             : 20 *! Number of energy and occupancy eigenvalues t 
homodensplot               : -1 *! Number of squared MOs to plot from HOMO and  
lumodensplot               : -1 *! Number of squared MOs to plot from LUMO and  
homoplot                   : -1 *! Number of MOs to plot from HOMO and lower (I 
lumoplot                   : -1 *! Number of MOs to plot from LUMO and higher ( 
dossmear                   : -3.674899422453221E-002 hartree *! Half width of s 
ldossmear                  : 3.674932438755288E-003 hartree *! Lorentzian broad 
popncalculate              : F *! Allow population analysis (Boolean)           
popnbondcutoff             : 5.66917840375065      bohr *! Bond length cutoff f 
ngwfanalysis               : F *! Perform NGWF analysis (Boolean)               
polarisationcalculate      : F *! Allow calculation of polarisation (Boolean)   
spreadcalculate            : F *! Calculate spread of NGWFs (Boolean)           
geommodulusest             : 1.700000000000000E-002 ha/bohr**3 *! The estimated 
geomfrequencyest           : 7.600000000000000E-003 hartree *! The estimated av 
geomenergytol              : 1.000000000000000E-006 hartree *! Geometry optimiz 
geomforcetol               : 2.000000000000000E-003 ha/bohr *! Geometry optimiz 
geomdisptol                : 5.000000000000000E-003 bohr *! Geometry optimizati 
geommaxiter                : 50 *! Maximum number of geometry optimization iter 
geomconvergencewin         : 2 *! Geometry optimization convergence tolerance w 
geomcontinuation           : F *! Read information for continuation of a previo 
geombackupiter             : 1 *! Number of geometry optimisation iterations be 
geomresetdkngwfsiter       : 6 *! Number of geom iterations between resets of k 
geomreusedkngwfs           : T *! Re-use density kernel and NGWFs during geomet 
geomprintinvhessian        : F *! Write inverse Hessian to standard output (Boo 
geommethod                 : CARTESIAN *! Method for geometry optimization (Str 
tssearchmethod             : LSTQST *! Specifies method to be used for TS searc 
tssearchlstqstprotocol     : LSTMAXIMUM *! Specifies LSTQST protocol (String)   
tssearchqstmaxiter         : 5 *! Specifies maximum number of QST steps (Intege 
tssearchcgmaxiter          : 20 *! Specifies maximum number of CG steps (Intege 
tssearchforcetol           : 5.000000000000000E-003 ha/bohr *! Force tolerance  
tssearchdisptol            : 1.000000000000000E-002 bohr *! Displacement tolera 
mddeltat                   : 40.0000000000000      aut *! Molecular dynamics ti 
mdnumiter                  : 100 *! Maximum number of molecular dynamics iterat 
mdtemperature              : 9.500000000000000E-004 hartree *! Temperature for  
mdalgorithm                : LEAPFROGVERLET *! Integration algorithm for molecu 
mdthermostat               : NONE *! Thermostat for molecular dynamics (String) 
mdcollisionfrequency       : 0.152000000000000      hartree *! Collision freque 
mixdenskern                : 0 *! Number of coefficients used to build new gues 
mixngwfs                   : 0 *! Number of coefficients used to build new gues 
condreaddenskern           : F *! Read in conduction density kernel (Boolean)   
condreadtightboxngwfs      : F *! Read in universal tightbox conduction NGWFs ( 
condfixedshift             : F *! Fixed projected conduction Hamiltonian shift  
condcalcmaxeigen           : T *! Calculate maximum conduction Hamiltonian eige 
condnumstates              : 0 *! Number of conduction states to be optimised f 
condkernelcutoff           : 1000.00000000000 *! Conduction density kernel radi 
condinitshift              : 0.000000000000000E+000 *! Initial shifting factor  
condshiftbuffer            : 0.100000000000000 *! Additional buffer for updatin 
condnumextrastates         : 0 *! Number of extra conduction states for initial 
condnumextraits            : 0 *! Number of NGWF iterations with extra conducti 
condplotjointorbitals      : T *! Plot orbitals in the joint basis following a  
condplotvcorbitals         : T *! Plot orbitals in the val and cond NGWF basis  
condcalcopticalspectra     : F *! Calculate matrix elements for optical absorpt 
condspeccalcmommatels      : T *! Calculate momentum matrix elements (default t 
condspeccalcnonloccomm     : T *! Calculate nonlocal commutator for momentum ma 
condspeccontderiv          : T *! Calculate non-local commuator using continuou 
condspecnonloccommshift    : 1.000000000000000E-004 *! Finite difference shift  
bskpointpathspacing        : 1.500000000000000E-002 1/bohr *! K-point spacing a 
bsnumeigenvalues           : 20 *! Num of energy and occ. eigenvalues to print  
bsunfold                   : 1 1 20 *! Number of times to unfold Brillouin zone 
bsmethod                   : TB *! Method to use: 'KP' or 'TB' (String)         
dotddft                    : F *! Allow Time-Dependent DFT calculation (Boolean 
tddftmaximumenergy         : 1.00000000000000      hartree *! Desired maximum o 
tddftresolution            : 1.000000000000000E-003 hartree *! Desired resoluti 
tddftpropagationmethod     : CRANKNICHOLSON *! Method used to integrate von Neu 
tddftsparsitylevel         : 0 *! Matrix sparsity when computing propagators e. 
tddfttammdancoff           : F *! Invoke Tamm-Dancoff decoupling approximation  
tddftdipolekickstrength    : 0.0 0.0 0.0 *! Maximum allowed phase shift in TDDF 
tddftxcfunctional          : LDA *! Exchange-correlation functional for TDDFT ( 
tddfthamiltonianmixing     : 0 *! Order of polynomial extrapolation to H(t + ha 
tddftdamping               : 0.000000000000000E+000 hartree *! Energy smearing  
tddftenforcedidempotency   : F *! Project out at each timestep that part of cha 
tddftmaxithotelling        : 50 *! Number of Hotelling iteration per propagatio 
tddftmaxresidhotelling     : 1.000000000000000E-018 *! Max allowed value in Hot 
tddftinvoverlapexact       : T *! Renew inverse overlap with O N^3 algorithm be 
isimplicitsolvent          : F *! Use implicit solvent? (Boolean)               
issmearedionrep            : F *! Implicit solvent: use smeared ions for electr 
isincludecavitation        : F *! Implicit solvent: include cavitation energy ( 
isdensitythreshold         : 7.800000000000000E-004 *! Implicit solvent: rho_0  
issolvationbeta            : 1.30000000000000 *! Implicit solvent: beta paramet 
isbulkpermittivity         : 1.00000000000000 *! Implicit solvent: eps_inf para 
ismultigriddefecterrortol  : 1.000000000000000E-002 *! Implicit solvent: stop c 
ismultigriderrortol        : 1.000000000000000E-005 *! Implicit solvent: stop c 
issmearedionwidth          : 0.800000000000000 *! Implicit solvent: Width of Ga 
issurfacethickness         : 2.000000000000000E-004 *! Implicit solvent: thickn 
issolventsurfacetension    : 4.762400000000000E-005 ha/bohr**2 *! Implicit solv 
ismultigridmaxiters        : 100 *! Implicit solvent: max number of iterations  
ismultigridnlevels         : 4 *! Implicit solvent: number of levels in multigr 
isdiscretizationorder      : 8 *! Implicit solvent: discretization order (2nd,  
isbccoarseness             : 5 *! Implicit solvent: controls boundary condition 
isbcsurfacecoarseness      : 1 *! Implicit solvent: controls boundary condition 
ischecksolvenergygrad      : F *! Implicit solvent: sanity check the energy gra 
issolvationmethod          : DIRECT *! Implicit solvent: direct or corrective m 
isdielectricmodel          : FIX_INITIAL *! Implicit solvent: how the cavity is 
isdielectricfunction       : FGF *! Implicit solvent: how the cavity is determi 
issolvationoutputdetail    : NONE *! Implicit solvent: controls extra output (S 
openbcionion               : F *! Force open BCs in ion-ion energy (Boolean)    
openbchartree              : F *! Force open BCs in Hartree potential (Boolean) 
openbcpspot                : F *! Force open BCs in local pseudopotential (Bool 
openbcpspotfinetunenptsx   : 100000 *! Open BCs in local pseudo, npts_x paramet 
openbcpspotfinetunealpha   : 0.300000000000000 *! Open BCs in local pseudo, alp 
openbcpspotfinetunef       : -1 *! Open BCs in local pseudo, fineness parameter 
%block bskpointpath        : *! K-point path for bandstructure calculation (Blo 
0.0 0.0 -0.5                                                                    
0.0 0.0  0.5                                                                    
%endblock bskpointpath     : *! K-point path for bandstructure calculation (Blo 
%block positionsabs        : *! Cartesian positions for each atom (Block)       
H 0.0 0.0  0.0                                                                  
H 0.0 0.0  2.0                                                                  
H 0.0 0.0  4.0                                                                  
H 0.0 0.0  6.0                                                                  
H 0.0 0.0  8.0                                                                  
H 0.0 0.0 10.0                                                                  
H 0.0 0.0 12.0                                                                  
H 0.0 0.0 14.0                                                                  
H 0.0 0.0 16.0                                                                  
H 0.0 0.0 18.0                                                                  
H 0.0 0.0 20.0                                                                  
H 0.0 0.0 22.0                                                                  
H 0.0 0.0 24.0                                                                  
H 0.0 0.0 26.0                                                                  
H 0.0 0.0 28.0                                                                  
H 0.0 0.0 30.0                                                                  
H 0.0 0.0 32.0                                                                  
H 0.0 0.0 34.0                                                                  
H 0.0 0.0 36.0                                                                  
H 0.0 0.0 38.0                                                                  
%endblock positionsabs     : *! Cartesian positions for each atom (Block)       
%block latticecart         : *! The simulation cell lattice vectors (Block)     
40.0  0.0  0.0                                                                  
0.0 40.0  0.0                                                                   
0.0  0.0 40.0                                                                   
%endblock latticecart      : *! The simulation cell lattice vectors (Block)     
%block species             : *! Species information (symbol, atomic number, num 
H H 1 1 5.9                                                                     
%endblock species          : *! Species information (symbol, atomic number, num 
%block speciespot          : *! Pseudopotential name for each species (Block)   
H     "../../pseudo/hydrogen_coul.recpot"                                       
%endblock speciespot       : *! Pseudopotential name for each species (Block)   
%block speciesatomicset    : *! Atomic set name for each species (Block)        
H AUTO                                                                          
%endblock speciesatomicset : *! Atomic set name for each species (Block)        
-------------------------------------------------------------------------------
-------------------------------------------------------------------------------

<<<<<<<<<<<<<<<<<<<<<<<<< Pseudopotential information >>>>>>>>>>>>>>>>>>>>>>>>>
File: ../../pseudo/hydrogen_coul.recpot [ 2001 points up to Gmax=  52.9 (1/bohr)]
  Atomic number:  1;  ionic charge:  1.000000
    Local potential
<<<<<<<<<<<<<<<<<<<<<<<<<<<<<<<<<<<<<<< >>>>>>>>>>>>>>>>>>>>>>>>>>>>>>>>>>>>>>>

------------------------- Atom counting information ---------------------------
Symbol    Natoms    Nngwfs    Nprojs
  H         20        20         0
.......   ......    ......    ......
Totals:     20        20         0
-------------------------------------------------------------------------------
 
Determining parallel strategy ...
... using space-filling curve
... NGWF load balancing: max      5;  min      5;  average      5
... done

Calculating Ewald energy ...
              Ewald: real-space energy =      16.019587
        Ewald: reciprocal-space energy =       2.338882
         Ewald: (sum_charge)**2 Energy =       1.842016
         Ewald: (sum_charge**2) Energy =       0.823774
                          Ewald Energy =      15.692678
... FFT-box specified

Basis initialisation ...
... Atom positions lie inside simulation cell
... NGWF spheres initialised
... NGWF tight boxes initialised
... NGWF basis size (local,global):       6764     27056
... Tight-boxes gathered
... done

============================== PSINC grid sizes ================================
                      Simulation cell:   80 x  80 x  80
                              FFT-box:   75 x  75 x  75
                                  PPD:    5 x   5 x   5
Grid space d1=  0.500000000000a0 (KE cutoff=  30.38533Eh = 826.82697eV)
Grid space d2=  0.500000000000a0 (KE cutoff=  30.38533Eh = 826.82697eV)
Grid space d3=  0.500000000000a0 (KE cutoff=  30.38533Eh = 826.82697eV)
================================================================================

********************** Fourier parallelisation information *********************
       Coarse grid (whole simulation cell) dimensions:     80    80    80

                 Real-space grid ('12' slabs):
                   Node    0:   20 (from    1 to   20)
                   Node    1:   20 (from   21 to   40)
                   Node    2:   20 (from   41 to   60)
                   Node    3:   20 (from   61 to   80)

                 Reciprocal-space grid ('23' slabs):
                   Node    0:   10 (from    1 to   10)
                   Node    1:   10 (from   11 to   20)
                   Node    2:   11 (from   21 to   31)
                   Node    3:   10 (from   32 to   41)
********************************************************************************

********************** Fourier parallelisation information *********************
       Double grid (whole simulation cell) dimensions:    160   160   160

                 Real-space grid ('12' slabs):
                   Node    0:   40 (from    1 to   40)
                   Node    1:   40 (from   41 to   80)
                   Node    2:   40 (from   81 to  120)
                   Node    3:   40 (from  121 to  160)

                 Reciprocal-space grid ('23' slabs):
                   Node    0:   20 (from    1 to   20)
                   Node    1:   20 (from   21 to   40)
                   Node    2:   21 (from   41 to   61)
                   Node    3:   20 (from   62 to   81)
********************************************************************************

=========================== Sparse matrix information ==========================
                        Overlap matrix filling:  55.00%
                        Density kernel filling: 100.00%
                    Hamiltonian matrix filling:  55.00%
                  NGWF diagonal matrix filling:   5.00%
                             KS matrix filling: 100.00% 
                           KSKS matrix filling: 100.00% 
================================================================================

Sparse matrix initialisation ... done
NGWF initialisation ...... done

============ Calculation of NGWF S^-1 using Hotelling algorithm ================ 
         Iteration  |  Frobenius norm and Maximum abs value    (of I-S*S_n^-1)   
               1       0.36365576E+01     0.73935466E+00
               2       0.34248516E+01     0.66122756E+00
               3       0.32131474E+01     0.58648041E+00
               4       0.29985953E+01     0.51621582E+00
               5       0.27752052E+01     0.44957869E+00
               6       0.25342558E+01     0.38508819E+00
               7       0.22637964E+01     0.32112261E+00
               8       0.19489065E+01     0.25623871E+00
               9       0.15715550E+01     0.18991182E+00
              10       0.11264680E+01     0.12348925E+00
              11       0.64568922E+00     0.63446510E-01
              12       0.24071905E+00     0.20845728E-01
              13       0.38567544E-01     0.28972831E-02
              14       0.12419159E-02     0.74372774E-04
              15       0.15089701E-05     0.77117762E-07
              16       0.22764255E-11     0.11501911E-12
================================================================================
Up spin density kernel initialisation ... 
======= Optimisation of K by Palser-Manolopoulos canonical purification ======== 
         Iteration  |  Band structure energy |    c_n   
               1          -1.55923741127860    1.0000000
               2          -1.55923741127861    1.0000000
Final occupancy bounds: [    1.00000000000000:    1.00000000000000]
Closest occupancy to 0.5:     1.00000000000000
================================================================================
... done
Down spin density kernel initialisation ...... done
   Initial electron number for spin 1:      20.00000000
   Initial electron number for spin 2:       0.00000000
     Final electron number for spin 1:      20.00000000
     Final electron number for spin 2:       0.00000000
................................................................................
<<<<<<<<<<<<<<<< Penalty functional density kernel optimisation >>>>>>>>>>>>>>>>
~~~~~~~~~~~~~~~~~~~~~~~~~~~~~~~~~~~~~~~~~~~~~~~~~~~~~~~~~~~~~~~~~~~~~~~~~~~~~~~~
iter|       energy      |   rms grad  |  commutator |LScoef|CGcoef|      Ne    |
      Q0=E0+P0:      -5.550206520409=     -5.550206520409+      0.000000000000
    Trial step:       1.000000000000
            G0:     -12.127733902373
WARNING: minimum value of charge density for spin 2: -0.1715
      Q1=E1+P1:     184.041538490727=    -18.472018761969+    202.513557252696
Quadratic term:    -201.719478913508
   Linear term:     -12.127733902373
  Optimal step:       0.030060889428
 Predicted min:      -5.732491754337
    !!! Quadratic minimum step length accepted !!!
 1     -5.55020652040867 0.17412448063 0.00000000000 0.0301  0.000   20.00000000
WARNING: minimum value of charge density for spin 2: -0.0052
      Q0=E0+P0:      -5.897832489958=     -5.944035921169+      0.046203431212
    Trial step:       0.173380764298
            G0:      -0.014705424748
WARNING: minimum value of charge density for spin 2: -0.0048
      Q1=E1+P1:      -5.896618465716=     -5.943267660510+      0.046649194794
Quadratic term:      -0.003763662023
   Linear term:      -0.002549637782
  Optimal step:       0.058727131261
 Predicted min:      -5.898264293662
    !!! Quadratic minimum step length accepted !!!
 2     -5.94403592116939 0.12876924726 0.00000000000 0.0587 -0.738   20.00000000
WARNING: minimum value of charge density for spin 2: -0.0050
      Q0=E0+P0:      -5.897497951351=     -5.943753022933+      0.046255071582
    Trial step:       0.100906664314
            G0:      -6.671320814630
WARNING: minimum value of charge density for spin 2: -0.0172
      Q1=E1+P1:      -6.290643281988=     -6.917981482902+      0.627338200914
Quadratic term:      -0.280035399337
   Linear term:      -0.673180729973
  Optimal step:       0.121285419813
 Predicted min:      -6.302064924206
    !!! Quadratic minimum step length accepted !!!
 3     -5.94375302293332 0.12884045269 0.00000000000 0.1213  2.409   20.00000000
WARNING: minimum value of charge density for spin 2: -0.0196

======================== Penalty functional minimisation =======================
   Final total energy     :      -7.114469790338
   Final penalty energy   :       0.839185249986
   RMS occupancy error    :       0.102420
   Occupancy bounds spin 1: [ 0.862, 1.124]
   Occupancy bounds spin 2: [-0.198, 0.071]
================================================================================

Finished density kernel iterations (   3)

################################################################################
########################### NGWF CG iteration  001 #############################
################################################################################
****** Reciprocal space K.E. preconditioning with k_zero =  3.0000 a0^-1 *******
   Initial electron number for spin 1:      20.66151120
   Initial electron number for spin 2:      -0.66151120
     Final electron number for spin 1:      20.00000000
     Final electron number for spin 2:       0.00000000

=================== Penalty functional idempotency correction ==================
 RMS occupancy error at iteration   1:  0.088021 (step -0.4620 Ne1=     20.0000)
                                                               Ne2=      0.0000
 RMS occupancy error at iteration   2:  0.020903 (step -0.5411 Ne1=     20.0000)
                                                               Ne2=      0.0000
 RMS occupancy error at iteration   3:  0.001664 (step -0.5031 Ne1=     20.0000)
                                                               Ne2=      0.0000
            Final RMS occupancy error   :  0.000014 (Ne1=     20.0000)
                                                     Ne2=      0.0000
            Final occupancy bounds spin 1: [  1.000,  1.000]
            Final occupancy bounds spin 2: [  0.000,  0.000]
================================================================================

................................................................................
<<<<<<<<<<<<<< LNV (Original version) density kernel optimisation >>>>>>>>>>>>>>
~~~~~~~~~~~~~~~~~~~~~~~~~~~~~~~~~~~~~~~~~~~~~~~~~~~~~~~~~~~~~~~~~~~~~~~~~~~~~~~~
iter|       energy      |  rms DeltaK |  commutator |LScoef|CGcoef|      Ne    |
      ideal mu1:      -0.123290092479
      ideal mu2:       0.007026797359
             Q0:      -5.550206529823
             G0:      -0.000000158329
   RMS gradient:       0.000028136161
     Trial step:       0.500000000000
             Q1:      -5.550206742201
 Quadratic coef:      -0.000000133214
 Linear coef   :      -0.000000079164
         Quadratic fit unsuccessful: proceeding to cubic fit
             Q2:      -5.550207220920
  Cubic LS coeff:    1995.499605283233
Predicted energy:      -6.257817497656
WARNING in lnv_denskernel_optimise_cg: setting cubic step to safe value
    Initial Ne1:      19.99992366
    Initial Ne2:       0.00004267
      Final Ne1:      20.00000000
      Final Ne2:       0.00000000

=================== Penalty functional idempotency correction ==================
 RMS occupancy error at iteration   1:  0.000025 (step -0.5002 Ne1=     20.0000)
                                                               Ne2=      0.0000
            Final RMS occupancy error   :  0.000000 (Ne1=     20.0000)
                                                     Ne2=      0.0000
            Final occupancy bounds spin 1: [  1.000,  1.000]
            Final occupancy bounds spin 2: [  0.000,  0.000]
================================================================================

 1     -5.55020652982283 0.00000000000 0.00000000000 0.1500  0.000   20.00000000
      ideal mu1:      -0.123290092301
      ideal mu2:       0.000000000000
 2     -5.55020652040717 0.00004399427 0.00000000000

                 ..............................................
                 | RMS LNV GRADIENT=    0.00000000655271      |
                 | LNV density kernel optimisation converged! |
                 ~~~~~~~~~~~~~~~~~~~~~~~~~~~~~~~~~~~~~~~~~~~~~~

           ........................................................
           | *** NGWF optimisation not converged ***              |
           | RMS NGWF gradient =    0.00207678763031              |
           | Criteria not satisfied:                              |
           | -> RMS NGWF gradient higher than set threshold.      |
           ========================================================

------------------------------- NGWF line search -------------------------------
============ Calculation of NGWF S^-1 using Hotelling algorithm ================ 
         Iteration  |  Frobenius norm and Maximum abs value    (of I-S*S_n^-1)   
               1       0.46180215E-02     0.49646166E-03
               2       0.12056622E-04     0.10663061E-05
               3       0.12049569E-09     0.72692963E-11
               4       0.47582230E-14     0.15543122E-14
================================================================================
============ Calculation of NGWF S^-1 using Hotelling algorithm ================ 
         Iteration  |  Frobenius norm and Maximum abs value    (of I-S*S_n^-1)   
               1       0.56941584E-01     0.62963065E-02
               2       0.13721332E-02     0.16211720E-03
               3       0.14645912E-05     0.94137476E-07
               4       0.21140627E-11     0.10835777E-12
================================================================================
RMS gradient                =       0.00207678763031
Trial step length           =               0.122474
Gradient along search dir.  =         -0.59367364829
Functional at step 0        =      -5.55020652040717
Functional at step 1        =      -5.62021113404892
Functional predicted        =      -6.03876604698754
Selected quadratic step     =               1.645886
Conjugate gradients coeff.  =               0.000000
--------------------------- NGWF line search finished --------------------------
                                               

################################################################################
########################### NGWF CG iteration  002 #############################
################################################################################
****** Reciprocal space K.E. preconditioning with k_zero =  3.0000 a0^-1 *******
   Initial electron number for spin 1:      20.05863855
   Initial electron number for spin 2:       0.00000000
     Final electron number for spin 1:      20.00000000
     Final electron number for spin 2:       0.00000000

=================== Penalty functional idempotency correction ==================
 RMS occupancy error at iteration   1:  0.009178 (step -0.5301 Ne1=     20.0000)
                                                               Ne2=      0.0000
 RMS occupancy error at iteration   2:  0.000534 (step -0.5016 Ne1=     20.0000)
                                                               Ne2=      0.0000
 RMS occupancy error at iteration   3:  0.000001 (step -0.5000 Ne1=     20.0000)
                                                               Ne2=      0.0000
            Final RMS occupancy error   :  0.000000 (Ne1=     20.0000)
                                                     Ne2=      0.0000
            Final occupancy bounds spin 1: [  1.000,  1.000]
            Final occupancy bounds spin 2: [  0.000,  0.000]
================================================================================

................................................................................
<<<<<<<<<<<<<< LNV (Original version) density kernel optimisation >>>>>>>>>>>>>>
~~~~~~~~~~~~~~~~~~~~~~~~~~~~~~~~~~~~~~~~~~~~~~~~~~~~~~~~~~~~~~~~~~~~~~~~~~~~~~~~
iter|       energy      |  rms DeltaK |  commutator |LScoef|CGcoef|      Ne    |
      ideal mu1:      -0.133315221975
      ideal mu2:       0.000000000000
 1     -6.02694608902916 0.00000000000 0.00000000000

                 ..............................................
                 | RMS LNV GRADIENT=    0.00000000003173      |
                 | LNV density kernel optimisation converged! |
                 ~~~~~~~~~~~~~~~~~~~~~~~~~~~~~~~~~~~~~~~~~~~~~~

           ........................................................
           | *** NGWF optimisation not converged ***              |
           | RMS NGWF gradient =    0.00085266561013              |
           | Criteria not satisfied:                              |
           | -> RMS NGWF gradient higher than set threshold.      |
           ========================================================

------------------------------- NGWF line search -------------------------------
============ Calculation of NGWF S^-1 using Hotelling algorithm ================ 
         Iteration  |  Frobenius norm and Maximum abs value    (of I-S*S_n^-1)   
               1       0.27128814E-01     0.31175852E-02
               2       0.33384283E-03     0.36798629E-04
               3       0.86814644E-07     0.55725529E-08
               4       0.87307552E-14     0.19984014E-14
================================================================================
============ Calculation of NGWF S^-1 using Hotelling algorithm ================ 
         Iteration  |  Frobenius norm and Maximum abs value    (of I-S*S_n^-1)   
               1       0.11841812E+00     0.13234737E-01
               2       0.59327461E-02     0.70114256E-03
               3       0.25790701E-04     0.17598739E-05
               4       0.64463933E-09     0.33258951E-10
               5       0.45613061E-14     0.15543122E-14
================================================================================
RMS gradient                =       0.00085266561013
Trial step length           =               0.448976
Gradient along search dir.  =         -0.09740200205
Functional at step 0        =      -6.02694608902916
Functional at step 1        =      -6.06655065544941
Functional predicted        =      -6.14280624905657
Selected quadratic step     =               2.379010
Conjugate gradients coeff.  =               0.168567
--------------------------- NGWF line search finished --------------------------
                                               

################################################################################
########################### NGWF CG iteration  003 #############################
################################################################################
****** Reciprocal space K.E. preconditioning with k_zero =  3.0000 a0^-1 *******
   Initial electron number for spin 1:      20.18008676
   Initial electron number for spin 2:       0.00000000
     Final electron number for spin 1:      20.00000000
     Final electron number for spin 2:       0.00000000

=================== Penalty functional idempotency correction ==================
 RMS occupancy error at iteration   1:  0.021151 (step -0.5494 Ne1=     20.0000)
                                                               Ne2=      0.0000
 RMS occupancy error at iteration   2:  0.003419 (step -0.5137 Ne1=     20.0000)
                                                               Ne2=      0.0000
 RMS occupancy error at iteration   3:  0.000064 (step -0.5001 Ne1=     20.0000)
                                                               Ne2=      0.0000
            Final RMS occupancy error   :  0.000000 (Ne1=     20.0000)
                                                     Ne2=      0.0000
            Final occupancy bounds spin 1: [  1.000,  1.000]
            Final occupancy bounds spin 2: [  0.000,  0.000]
================================================================================

................................................................................
<<<<<<<<<<<<<< LNV (Original version) density kernel optimisation >>>>>>>>>>>>>>
~~~~~~~~~~~~~~~~~~~~~~~~~~~~~~~~~~~~~~~~~~~~~~~~~~~~~~~~~~~~~~~~~~~~~~~~~~~~~~~~
iter|       energy      |  rms DeltaK |  commutator |LScoef|CGcoef|      Ne    |
      ideal mu1:      -0.129061622147
      ideal mu2:       0.000000000000
             Q0:      -6.117477051460
             G0:      -0.000000000001
   RMS gradient:       0.000000053913
     Trial step:       0.273861278753
             Q1:      -6.117477051460
 Quadratic coef:       0.000000000000
 Linear coef   :       0.000000000000
         Quadratic fit unsuccessful: proceeding to cubic fit
             Q2:      -6.117477051460
WARNING in lnv_denskernel_optimise_cg: line search unsuccessful -
  optimal step length set to safe value
    Initial Ne1:      19.99999968
    Initial Ne2:       0.00000000
      Final Ne1:      20.00000000
      Final Ne2:       0.00000000

=================== Penalty functional idempotency correction ==================
 RMS occupancy error at iteration   1:  0.000000 (step -0.5000 Ne1=     20.0000)
                                                               Ne2=      0.0000
            Final RMS occupancy error   :  0.000000 (Ne1=     20.0000)
                                                     Ne2=      0.0000
            Final occupancy bounds spin 1: [  1.000,  1.000]
            Final occupancy bounds spin 2: [  0.000,  0.000]
================================================================================

 1     -6.11747705145951 0.00000000000 0.00000000000 0.1500  0.000   20.00000000
      ideal mu1:      -0.129061622147
      ideal mu2:       0.000000000000
 2     -6.11747705145946 0.00000009330 0.00000000000

                 ..............................................
                 | RMS LNV GRADIENT=    0.00000000000007      |
                 | LNV density kernel optimisation converged! |
                 ~~~~~~~~~~~~~~~~~~~~~~~~~~~~~~~~~~~~~~~~~~~~~~

           ........................................................
           | *** NGWF optimisation not converged ***              |
           | RMS NGWF gradient =    0.00056384622655              |
           | Criteria not satisfied:                              |
           | -> RMS NGWF gradient higher than set threshold.      |
           ========================================================

------------------------------- NGWF line search -------------------------------
============ Calculation of NGWF S^-1 using Hotelling algorithm ================ 
         Iteration  |  Frobenius norm and Maximum abs value    (of I-S*S_n^-1)   
               1       0.47820409E-01     0.51786439E-02
               2       0.10784475E-02     0.11433958E-03
               3       0.97736382E-06     0.58152456E-07
               4       0.94901162E-12     0.48849813E-13
================================================================================
============ Calculation of NGWF S^-1 using Hotelling algorithm ================ 
         Iteration  |  Frobenius norm and Maximum abs value    (of I-S*S_n^-1)   
               1       0.21192906E-01     0.22695205E-02
               2       0.21072722E-03     0.22456963E-04
               3       0.37534480E-07     0.22202995E-08
               4       0.56490131E-14     0.22204460E-14
================================================================================
RMS gradient                =       0.00056384622655
Trial step length           =               1.033498
Gradient along search dir.  =         -0.03463884271
Functional at step 0        =      -6.11747705145946
Functional at step 1        =      -6.14083853659337
Functional predicted        =      -6.14323708892630
Selected quadratic step     =               1.487350
Conjugate gradients coeff.  =               0.437284
--------------------------- NGWF line search finished --------------------------
                                               

################################################################################
########################### NGWF CG iteration  004 #############################
################################################################################
****** Reciprocal space K.E. preconditioning with k_zero =  3.0000 a0^-1 *******
   Initial electron number for spin 1:      20.07097295
   Initial electron number for spin 2:       0.00000000
     Final electron number for spin 1:      20.00000000
     Final electron number for spin 2:       0.00000000

=================== Penalty functional idempotency correction ==================
 RMS occupancy error at iteration   1:  0.010307 (step -0.5387 Ne1=     20.0000)
                                                               Ne2=      0.0000
 RMS occupancy error at iteration   2:  0.000720 (step -0.5021 Ne1=     20.0000)
                                                               Ne2=      0.0000
 RMS occupancy error at iteration   3:  0.000002 (step -0.5000 Ne1=     20.0000)
                                                               Ne2=      0.0000
            Final RMS occupancy error   :  0.000000 (Ne1=     20.0000)
                                                     Ne2=      0.0000
            Final occupancy bounds spin 1: [  1.000,  1.000]
            Final occupancy bounds spin 2: [  0.000,  0.000]
================================================================================

................................................................................
<<<<<<<<<<<<<< LNV (Original version) density kernel optimisation >>>>>>>>>>>>>>
~~~~~~~~~~~~~~~~~~~~~~~~~~~~~~~~~~~~~~~~~~~~~~~~~~~~~~~~~~~~~~~~~~~~~~~~~~~~~~~~
iter|       energy      |  rms DeltaK |  commutator |LScoef|CGcoef|      Ne    |
      ideal mu1:      -0.129434152798
      ideal mu2:       0.000000000000
 1     -6.13735995906679 0.00000000000 0.00000000000

                 ..............................................
                 | RMS LNV GRADIENT=    0.00000000009917      |
                 | LNV density kernel optimisation converged! |
                 ~~~~~~~~~~~~~~~~~~~~~~~~~~~~~~~~~~~~~~~~~~~~~~

           ........................................................
           | *** NGWF optimisation not converged ***              |
           | RMS NGWF gradient =    0.00023336586873              |
           | Criteria not satisfied:                              |
           | -> RMS NGWF gradient higher than set threshold.      |
           ========================================================

------------------------------- NGWF line search -------------------------------
============ Calculation of NGWF S^-1 using Hotelling algorithm ================ 
         Iteration  |  Frobenius norm and Maximum abs value    (of I-S*S_n^-1)   
               1       0.10543591E-01     0.12885169E-02
               2       0.31737418E-04     0.55583662E-05
               3       0.33174314E-09     0.50365490E-10
               4       0.47291796E-14     0.19984014E-14
================================================================================
============ Calculation of NGWF S^-1 using Hotelling algorithm ================ 
         Iteration  |  Frobenius norm and Maximum abs value    (of I-S*S_n^-1)   
               1       0.14968844E-02     0.17894796E-03
               2       0.63717215E-06     0.11203316E-06
               3       0.13472480E-12     0.21316282E-13
================================================================================
RMS gradient                =       0.00023336586873
Trial step length           =               1.239828
Gradient along search dir.  =         -0.00614513653
Functional at step 0        =      -6.13735995906679
Functional at step 1        =      -6.14163959398114
Functional predicted        =      -6.14170579678743
Selected quadratic step     =               1.414399
Conjugate gradients coeff.  =               0.171298
--------------------------- NGWF line search finished --------------------------
                                               

################################################################################
########################### NGWF CG iteration  005 #############################
################################################################################
****** Reciprocal space K.E. preconditioning with k_zero =  3.0000 a0^-1 *******
   Initial electron number for spin 1:      20.01501520
   Initial electron number for spin 2:       0.00000000
     Final electron number for spin 1:      20.00000000
     Final electron number for spin 2:       0.00000000

=================== Penalty functional idempotency correction ==================
 RMS occupancy error at iteration   1:  0.001827 (step -0.5014 Ne1=     20.0000)
                                                               Ne2=      0.0000
 RMS occupancy error at iteration   2:  0.000012 (step -0.5000 Ne1=     20.0000)
                                                               Ne2=      0.0000
            Final RMS occupancy error   :  0.000000 (Ne1=     20.0000)
                                                     Ne2=      0.0000
            Final occupancy bounds spin 1: [  1.000,  1.000]
            Final occupancy bounds spin 2: [  0.000,  0.000]
================================================================================

................................................................................
<<<<<<<<<<<<<< LNV (Original version) density kernel optimisation >>>>>>>>>>>>>>
~~~~~~~~~~~~~~~~~~~~~~~~~~~~~~~~~~~~~~~~~~~~~~~~~~~~~~~~~~~~~~~~~~~~~~~~~~~~~~~~
iter|       energy      |  rms DeltaK |  commutator |LScoef|CGcoef|      Ne    |
      ideal mu1:      -0.131195683706
      ideal mu2:       0.000000000000
 1     -6.14167192925241 0.00000000000 0.00000000000

                 ..............................................
                 | RMS LNV GRADIENT=    0.00000000052538      |
                 | LNV density kernel optimisation converged! |
                 ~~~~~~~~~~~~~~~~~~~~~~~~~~~~~~~~~~~~~~~~~~~~~~

           ........................................................
           | *** NGWF optimisation not converged ***              |
           | RMS NGWF gradient =    0.00018035712050              |
           | Criteria not satisfied:                              |
           | -> RMS NGWF gradient higher than set threshold.      |
           ========================================================

================================================================================
           ---------------- ENERGY COMPONENTS (Eh) ----------------
           | Kinetic                    :       16.81458381773206 |
           | Pseudopotential (local)    :      -52.80505005539595 |
           | Pseudopotential (non-local):        0.00000000000000 |
           | Hartree                    :       21.58917579821814 |
           | Exchange-correlation       :       -7.43305980964720 |
           | Ewald                      :       15.69267831984055 |
           | Total                      :       -6.14167192925241 |
           --------------------------------------------------------
           ------ LOCAL ENERGY COMPONENTS FROM MATRIX TRACES ------
           | Pseudopotential (local)    :      -52.80505005539673 |
           | Hartree                    :       21.58917579821831 |
           --------------------------------------------------------
           Integrated density           :       20.00000000000003
           Integrated spin density      :       20.00000000000004
           Integrated |spin density|    :       20.00000000000004
           Local density approx. <S^2>  :      110.00000000000000
           Integrated density tr(KS)    :       20.00000000000000
           Integrated spin tr(KS)       :       20.00000000000000
================================================================================


------------------------------- NGWF line search -------------------------------
============ Calculation of NGWF S^-1 using Hotelling algorithm ================ 
         Iteration  |  Frobenius norm and Maximum abs value    (of I-S*S_n^-1)   
               1       0.15283393E-01     0.17932253E-02
               2       0.68920655E-04     0.11679105E-04
               3       0.16156813E-08     0.23750468E-09
               4       0.48934484E-14     0.15543122E-14
================================================================================
============ Calculation of NGWF S^-1 using Hotelling algorithm ================ 
         Iteration  |  Frobenius norm and Maximum abs value    (of I-S*S_n^-1)   
               1       0.15531099E-02     0.17978537E-03
               2       0.71203674E-06     0.12060752E-06
               3       0.17285427E-12     0.26423308E-13
================================================================================
RMS gradient                =       0.00018035712050
Trial step length           =               1.324240
Gradient along search dir.  =         -0.00444816522
Functional at step 0        =      -6.14167192925241
Functional at step 1        =      -6.14488828924265
Functional predicted        =      -6.14491578195647
Selected quadratic step     =               1.458513
Conjugate gradients coeff.  =               0.597299
--------------------------- NGWF line search finished --------------------------
                                               

################################################################################
########################### NGWF CG iteration  006 #############################
################################################################################
****** Reciprocal space K.E. preconditioning with k_zero =  3.0000 a0^-1 *******
   Initial electron number for spin 1:      20.01055678
   Initial electron number for spin 2:       0.00000000
     Final electron number for spin 1:      20.00000000
     Final electron number for spin 2:       0.00000000

=================== Penalty functional idempotency correction ==================
 RMS occupancy error at iteration   1:  0.002635 (step -0.5006 Ne1=     20.0000)
                                                               Ne2=      0.0000
 RMS occupancy error at iteration   2:  0.000025 (step -0.5000 Ne1=     20.0000)
                                                               Ne2=      0.0000
            Final RMS occupancy error   :  0.000000 (Ne1=     20.0000)
                                                     Ne2=      0.0000
            Final occupancy bounds spin 1: [  1.000,  1.000]
            Final occupancy bounds spin 2: [  0.000,  0.000]
================================================================================

................................................................................
<<<<<<<<<<<<<< LNV (Original version) density kernel optimisation >>>>>>>>>>>>>>
~~~~~~~~~~~~~~~~~~~~~~~~~~~~~~~~~~~~~~~~~~~~~~~~~~~~~~~~~~~~~~~~~~~~~~~~~~~~~~~~
iter|       energy      |  rms DeltaK |  commutator |LScoef|CGcoef|      Ne    |
      ideal mu1:      -0.132948385952
      ideal mu2:       0.000000000000
             Q0:      -6.144852158110
             G0:       0.000000000000
   RMS gradient:       0.000000002215
     Trial step:       0.202680023221
             Q1:      -6.144852158110
 Quadratic coef:       0.000000000000
 Linear coef   :       0.000000000000
           Qmin:      -6.144852158110
Quadratic minimum step length (  0.000810189270) accepted
    Initial Ne1:      20.00000000
    Initial Ne2:       0.00000000
      Final Ne1:      20.00000000
      Final Ne2:       0.00000000

=================== Penalty functional idempotency correction ==================
 RMS occupancy error at iteration   1:  0.000000 (step -0.5000 Ne1=     20.0000)
                                                               Ne2=      0.0000
            Final RMS occupancy error   :  0.000000 (Ne1=     20.0000)
                                                     Ne2=      0.0000
            Final occupancy bounds spin 1: [  1.000,  1.000]
            Final occupancy bounds spin 2: [  0.000,  0.000]
================================================================================

 1     -6.14485215811044 0.00000000000 0.00000000000 0.0008  0.000   20.00000000
      ideal mu1:      -0.132948385952
      ideal mu2:       0.000000000000
 2     -6.14485215811042 0.00000000001 0.00000000000

                 ..............................................
                 | RMS LNV GRADIENT=    0.00000000000000      |
                 | LNV density kernel optimisation converged! |
                 ~~~~~~~~~~~~~~~~~~~~~~~~~~~~~~~~~~~~~~~~~~~~~~

           ........................................................
           | *** NGWF optimisation not converged ***              |
           | RMS NGWF gradient =    0.00018179472784              |
           | Criteria not satisfied:                              |
           | -> RMS NGWF gradient higher than set threshold.      |
           ========================================================

------------------------------- NGWF line search -------------------------------
============ Calculation of NGWF S^-1 using Hotelling algorithm ================ 
         Iteration  |  Frobenius norm and Maximum abs value    (of I-S*S_n^-1)   
               1       0.26846276E-01     0.34481947E-02
               2       0.21542500E-03     0.36036128E-04
               3       0.16326300E-07     0.23203977E-08
               4       0.57760817E-14     0.17763568E-14
================================================================================
============ Calculation of NGWF S^-1 using Hotelling algorithm ================ 
         Iteration  |  Frobenius norm and Maximum abs value    (of I-S*S_n^-1)   
               1       0.22948125E-02     0.29361876E-03
               2       0.15706479E-05     0.26330824E-06
               3       0.86359681E-12     0.12401191E-12
================================================================================
RMS gradient                =       0.00018179472784
Trial step length           =               1.389756
Gradient along search dir.  =         -0.00445784547
Functional at step 0        =      -6.14485215811042
Functional at step 1        =      -6.14765995825090
Functional predicted        =      -6.14768476033214
Selected quadratic step     =               1.270839
Conjugate gradients coeff.  =               1.016005
--------------------------- NGWF line search finished --------------------------
                                               

################################################################################
########################### NGWF CG iteration  007 #############################
################################################################################
****** Reciprocal space K.E. preconditioning with k_zero =  3.0000 a0^-1 *******
   Initial electron number for spin 1:      20.00276880
   Initial electron number for spin 2:       0.00000000
     Final electron number for spin 1:      20.00000000
     Final electron number for spin 2:       0.00000000

=================== Penalty functional idempotency correction ==================
 RMS occupancy error at iteration   1:  0.003874 (step -0.5027 Ne1=     20.0000)
                                                               Ne2=      0.0000
 RMS occupancy error at iteration   2:  0.000054 (step -0.5000 Ne1=     20.0000)
                                                               Ne2=      0.0000
            Final RMS occupancy error   :  0.000000 (Ne1=     20.0000)
                                                     Ne2=      0.0000
            Final occupancy bounds spin 1: [  1.000,  1.000]
            Final occupancy bounds spin 2: [  0.000,  0.000]
================================================================================

................................................................................
<<<<<<<<<<<<<< LNV (Original version) density kernel optimisation >>>>>>>>>>>>>>
~~~~~~~~~~~~~~~~~~~~~~~~~~~~~~~~~~~~~~~~~~~~~~~~~~~~~~~~~~~~~~~~~~~~~~~~~~~~~~~~
iter|       energy      |  rms DeltaK |  commutator |LScoef|CGcoef|      Ne    |
      ideal mu1:      -0.134106270249
      ideal mu2:       0.000000000000
             Q0:      -6.147303990667
             G0:       0.000000000000
   RMS gradient:       0.000000010884
     Trial step:       0.012814412985
             Q1:      -6.147303990667
 Quadratic coef:       0.000000000000
 Linear coef   :       0.000000000000
  Quadratic term too small: proceeding to cubic fit
         Quadratic fit unsuccessful: proceeding to cubic fit
             Q2:      -6.147303990667
  Cubic LS coeff:       0.000638877838
Predicted energy:      -6.147303990667
Cubic minimum step length accepted
    Initial Ne1:      20.00000000
    Initial Ne2:       0.00000000
      Final Ne1:      20.00000000
      Final Ne2:       0.00000000

=================== Penalty functional idempotency correction ==================
 RMS occupancy error at iteration   1:  0.000000 (step -0.5000 Ne1=     20.0000)
                                                               Ne2=      0.0000
            Final RMS occupancy error   :  0.000000 (Ne1=     20.0000)
                                                     Ne2=      0.0000
            Final occupancy bounds spin 1: [  1.000,  1.000]
            Final occupancy bounds spin 2: [  0.000,  0.000]
================================================================================

 1     -6.14730399066715 0.00000000000 0.00000000000 0.0006  0.000   20.00000000
      ideal mu1:      -0.134106270249
      ideal mu2:       0.000000000000
 2     -6.14730399066716 0.00000000006 0.00000000000

                 ..............................................
                 | RMS LNV GRADIENT=    0.00000000000000      |
                 | LNV density kernel optimisation converged! |
                 ~~~~~~~~~~~~~~~~~~~~~~~~~~~~~~~~~~~~~~~~~~~~~~

           ........................................................
           | *** NGWF optimisation not converged ***              |
           | RMS NGWF gradient =    0.00019975273816              |
           | Criteria not satisfied:                              |
           | -> RMS NGWF gradient higher than set threshold.      |
           ========================================================

------------------------------- NGWF line search -------------------------------
============ Calculation of NGWF S^-1 using Hotelling algorithm ================ 
         Iteration  |  Frobenius norm and Maximum abs value    (of I-S*S_n^-1)   
               1       0.16495852E-01     0.18138417E-02
               2       0.15122617E-03     0.13605658E-04
               3       0.17078615E-07     0.11434689E-08
               4       0.49522354E-14     0.13322676E-14
================================================================================
============ Calculation of NGWF S^-1 using Hotelling algorithm ================ 
         Iteration  |  Frobenius norm and Maximum abs value    (of I-S*S_n^-1)   
               1       0.26850802E-01     0.29462923E-02
               2       0.39986848E-03     0.36048283E-04
               3       0.11970619E-06     0.79947411E-08
               4       0.14461246E-13     0.18873791E-14
================================================================================
RMS gradient                =       0.00019975273816
Trial step length           =               1.328968
Gradient along search dir.  =         -0.00549223457
Functional at step 0        =      -6.14730399066716
Functional at step 1        =      -6.15321659288900
Functional predicted        =      -6.15691077834508
Selected quadratic step     =               3.498317
Conjugate gradients coeff.  =               0.000000
--------------------------- NGWF line search finished --------------------------
                                               

################################################################################
########################### NGWF CG iteration  008 #############################
################################################################################
****** Reciprocal space K.E. preconditioning with k_zero =  3.0000 a0^-1 *******
   Initial electron number for spin 1:      19.95511724
   Initial electron number for spin 2:       0.00000000
     Final electron number for spin 1:      20.00000000
     Final electron number for spin 2:       0.00000000

=================== Penalty functional idempotency correction ==================
 RMS occupancy error at iteration   1:  0.006526 (step -0.5242 Ne1=     20.0000)
                                                               Ne2=      0.0000
 RMS occupancy error at iteration   2:  0.000192 (step -0.5003 Ne1=     20.0000)
                                                               Ne2=      0.0000
 RMS occupancy error at iteration   3:  0.000000 (step -0.5000 Ne1=     20.0000)
                                                               Ne2=      0.0000
            Final RMS occupancy error   :  0.000000 (Ne1=     20.0000)
                                                     Ne2=      0.0000
            Final occupancy bounds spin 1: [  1.000,  1.000]
            Final occupancy bounds spin 2: [  0.000,  0.000]
================================================================================

................................................................................
<<<<<<<<<<<<<< LNV (Original version) density kernel optimisation >>>>>>>>>>>>>>
~~~~~~~~~~~~~~~~~~~~~~~~~~~~~~~~~~~~~~~~~~~~~~~~~~~~~~~~~~~~~~~~~~~~~~~~~~~~~~~~
iter|       energy      |  rms DeltaK |  commutator |LScoef|CGcoef|      Ne    |
      ideal mu1:      -0.131529020597
      ideal mu2:       0.000000000000
 1     -6.15374484660948 0.00000000000 0.00000000000

                 ..............................................
                 | RMS LNV GRADIENT=    0.00000000000077      |
                 | LNV density kernel optimisation converged! |
                 ~~~~~~~~~~~~~~~~~~~~~~~~~~~~~~~~~~~~~~~~~~~~~~

           ........................................................
           | *** NGWF optimisation not converged ***              |
           | RMS NGWF gradient =    0.00020315542900              |
           | Criteria not satisfied:                              |
           | -> RMS NGWF gradient higher than set threshold.      |
           ========================================================

------------------------------- NGWF line search -------------------------------
============ Calculation of NGWF S^-1 using Hotelling algorithm ================ 
         Iteration  |  Frobenius norm and Maximum abs value    (of I-S*S_n^-1)   
               1       0.38957984E-01     0.46455780E-02
               2       0.65453112E-03     0.75886235E-04
               3       0.25266281E-06     0.21420556E-07
               4       0.48040821E-13     0.48849813E-14
================================================================================
============ Calculation of NGWF S^-1 using Hotelling algorithm ================ 
         Iteration  |  Frobenius norm and Maximum abs value    (of I-S*S_n^-1)   
               1       0.89991396E-02     0.10704239E-02
               2       0.35090010E-04     0.40492261E-05
               3       0.72935580E-09     0.61567307E-10
               4       0.50019897E-14     0.13322676E-14
================================================================================
RMS gradient                =       0.00020315542900
Trial step length           =               2.156189
Gradient along search dir.  =         -0.00379023433
Functional at step 0        =      -6.15374484660948
Functional at step 1        =      -6.15661591024431
Functional predicted        =      -6.15689444636553
Selected quadratic step     =               1.661955
Conjugate gradients coeff.  =               1.034359
--------------------------- NGWF line search finished --------------------------
                                               

################################################################################
########################### NGWF CG iteration  009 #############################
################################################################################
****** Reciprocal space K.E. preconditioning with k_zero =  3.0000 a0^-1 *******
   Initial electron number for spin 1:      19.96709173
   Initial electron number for spin 2:       0.00000000
     Final electron number for spin 1:      20.00000000
     Final electron number for spin 2:       0.00000000

=================== Penalty functional idempotency correction ==================
 RMS occupancy error at iteration   1:  0.004583 (step -0.5095 Ne1=     20.0000)
                                                               Ne2=      0.0000
 RMS occupancy error at iteration   2:  0.000085 (step -0.5001 Ne1=     20.0000)
                                                               Ne2=      0.0000
            Final RMS occupancy error   :  0.000000 (Ne1=     20.0000)
                                                     Ne2=      0.0000
            Final occupancy bounds spin 1: [  1.000,  1.000]
            Final occupancy bounds spin 2: [  0.000,  0.000]
================================================================================

................................................................................
<<<<<<<<<<<<<< LNV (Original version) density kernel optimisation >>>>>>>>>>>>>>
~~~~~~~~~~~~~~~~~~~~~~~~~~~~~~~~~~~~~~~~~~~~~~~~~~~~~~~~~~~~~~~~~~~~~~~~~~~~~~~~
iter|       energy      |  rms DeltaK |  commutator |LScoef|CGcoef|      Ne    |
      ideal mu1:      -0.131098497402
      ideal mu2:       0.000000000000
             Q0:      -6.155684711996
             G0:      -0.000000000001
   RMS gradient:       0.000000058297
     Trial step:       0.002861266235
             Q1:      -6.155684711996
 Quadratic coef:       0.000000000000
 Linear coef   :       0.000000000000
           Qmin:      -6.155684711996
Quadratic minimum step length (  0.000313265442) accepted
    Initial Ne1:      20.00000000
    Initial Ne2:       0.00000000
      Final Ne1:      20.00000000
      Final Ne2:       0.00000000

=================== Penalty functional idempotency correction ==================
 RMS occupancy error at iteration   1:  0.000000 (step -0.5000 Ne1=     20.0000)
                                                               Ne2=      0.0000
            Final RMS occupancy error   :  0.000000 (Ne1=     20.0000)
                                                     Ne2=      0.0000
            Final occupancy bounds spin 1: [  1.000,  1.000]
            Final occupancy bounds spin 2: [  0.000,  0.000]
================================================================================

 1     -6.15568471199612 0.00000000000 0.00000000000 0.0003  0.000   20.00000000
      ideal mu1:      -0.131098497402
      ideal mu2:       0.000000000000
 2     -6.15568471199611 0.00000000023 0.00000000000

                 ..............................................
                 | RMS LNV GRADIENT=    0.00000000000002      |
                 | LNV density kernel optimisation converged! |
                 ~~~~~~~~~~~~~~~~~~~~~~~~~~~~~~~~~~~~~~~~~~~~~~

           ........................................................
           | *** NGWF optimisation not converged ***              |
           | RMS NGWF gradient =    0.00007117250061              |
           | Criteria not satisfied:                              |
           | -> RMS NGWF gradient higher than set threshold.      |
           ========================================================

------------------------------- NGWF line search -------------------------------
WARNING: slope along search direction is positive:    0.517378E-03
         Resetting conjugate gradients!
WARNING: slope along search direction is still positive.
[...]
 +           3       -0.191145     (  0.0000  0.0000 -0.0700)    +
 +           4       -0.183859     (  0.0000  0.0000  0.0800)    +
 +           5       -0.144954     (  0.0000  0.0000 -0.1200)    +
 +           6       -0.132789     (  0.0000  0.0000  0.1300)    +
 +           7       -0.074407     (  0.0000  0.0000 -0.1700)    +
 +           8       -0.057390     (  0.0000  0.0000  0.1800)    +
 +           9        0.020360     (  0.0000  0.0000 -0.2200)    +
 +          10        0.042231     (  0.0000  0.0000  0.2300)    +
 +          11        0.139618     (  0.0000  0.0000 -0.2700)    +
 +          12        0.166470     (  0.0000  0.0000  0.2800)    +
 +          13        0.283935     (  0.0000  0.0000 -0.3200)    +
 +          14        0.315798     (  0.0000  0.0000  0.3300)    +
 +          15        0.453342     (  0.0000  0.0000 -0.3700)    +
 +          16        0.490390     (  0.0000  0.0000  0.3800)    +
 +          17        0.650307     (  0.0000  0.0000 -0.4200)    +
 +          18        0.692775     (  0.0000  0.0000  0.4300)    +
 +          19        0.850886     (  0.0000  0.0000 -0.4700)    +
 +          20        0.878225     (  0.0000  0.0000  0.4800)    +
 +                                                               +
 + ------------------------------------------------------------- +
 +  Spin=2 kpt=    3 ( 0.00000  0.00000 -0.30000)                +
 + ------------------------------------------------------------- +
 +                                                               +
 +           1       -0.213821     (  0.0000  0.0000 -0.0150)    +
 +           2       -0.208975     (  0.0000  0.0000  0.0350)    +
 +           3       -0.194422     (  0.0000  0.0000 -0.0650)    +
 +           4       -0.179850     (  0.0000  0.0000  0.0850)    +
 +           5       -0.150671     (  0.0000  0.0000 -0.1150)    +
 +           6       -0.126341     (  0.0000  0.0000  0.1350)    +
 +           7       -0.082553     (  0.0000  0.0000 -0.1650)    +
 +           8       -0.048519     (  0.0000  0.0000  0.1850)    +
 +           9        0.009792     (  0.0000  0.0000 -0.2150)    +
 +          10        0.053535     (  0.0000  0.0000  0.2350)    +
 +          11        0.126570     (  0.0000  0.0000 -0.2650)    +
 +          12        0.180274     (  0.0000  0.0000  0.2850)    +
 +          13        0.268376     (  0.0000  0.0000 -0.3150)    +
 +          14        0.332102     (  0.0000  0.0000  0.3350)    +
 +          15        0.435236     (  0.0000  0.0000 -0.3650)    +
 +          16        0.509346     (  0.0000  0.0000  0.3850)    +
 +          17        0.629339     (  0.0000  0.0000 -0.4150)    +
 +          18        0.714123     (  0.0000  0.0000  0.4350)    +
 +          19        0.834352     (  0.0000  0.0000 -0.4650)    +
 +          20        0.888400     (  0.0000  0.0000  0.4850)    +
 +                                                               +
 + ------------------------------------------------------------- +
 +  Spin=2 kpt=    4 ( 0.00000  0.00000 -0.20000)                +
 + ------------------------------------------------------------- +
 +                                                               +
 +           1       -0.214426     (  0.0000  0.0000 -0.0100)    +
 +           2       -0.207157     (  0.0000  0.0000  0.0400)    +
 +           3       -0.197455     (  0.0000  0.0000 -0.0600)    +
 +           4       -0.175597     (  0.0000  0.0000  0.0900)    +
 +           5       -0.156145     (  0.0000  0.0000 -0.1100)    +
 +           6       -0.119650     (  0.0000  0.0000  0.1400)    +
 +           7       -0.090457     (  0.0000  0.0000 -0.1600)    +
 +           8       -0.039406     (  0.0000  0.0000  0.1900)    +
 +           9       -0.000533     (  0.0000  0.0000 -0.2100)    +
 +          10        0.065086     (  0.0000  0.0000  0.2400)    +
 +          11        0.113773     (  0.0000  0.0000 -0.2600)    +
 +          12        0.194329     (  0.0000  0.0000  0.2900)    +
 +          13        0.253066     (  0.0000  0.0000 -0.3100)    +
 +          14        0.348656     (  0.0000  0.0000  0.3400)    +
 +          15        0.417400     (  0.0000  0.0000 -0.3600)    +
 +          16        0.528599     (  0.0000  0.0000  0.3900)    +
 +          17        0.608616     (  0.0000  0.0000 -0.4100)    +
 +          18        0.735403     (  0.0000  0.0000  0.4400)    +
 +          19        0.816343     (  0.0000  0.0000 -0.4600)    +
 +          20        0.895878     (  0.0000  0.0000  0.4900)    +
 +                                                               +
 + ------------------------------------------------------------- +
 +  Spin=2 kpt=    5 ( 0.00000  0.00000 -0.10000)                +
 + ------------------------------------------------------------- +
 +                                                               +
 +           1       -0.214790     (  0.0000  0.0000 -0.0050)    +
 +           2       -0.205096     (  0.0000  0.0000  0.0450)    +
 +           3       -0.200246     (  0.0000  0.0000 -0.0550)    +
 +           4       -0.171100     (  0.0000  0.0000  0.0950)    +
 +           5       -0.161374     (  0.0000  0.0000 -0.1050)    +
 +           6       -0.112715     (  0.0000  0.0000  0.1450)    +
 +           7       -0.098119     (  0.0000  0.0000 -0.1550)    +
 +           8       -0.030051     (  0.0000  0.0000  0.1950)    +
 +           9       -0.010615     (  0.0000  0.0000 -0.2050)    +
 +          10        0.076885     (  0.0000  0.0000  0.2450)    +
 +          11        0.101227     (  0.0000  0.0000 -0.2550)    +
 +          12        0.208637     (  0.0000  0.0000  0.2950)    +
 +          13        0.238006     (  0.0000  0.0000 -0.3050)    +
 +          14        0.365460     (  0.0000  0.0000  0.3450)    +
 +          15        0.399829     (  0.0000  0.0000 -0.3550)    +
 +          16        0.548152     (  0.0000  0.0000  0.3950)    +
 +          17        0.588167     (  0.0000  0.0000 -0.4050)    +
 +          18        0.756465     (  0.0000  0.0000  0.4450)    +
 +          19        0.797172     (  0.0000  0.0000 -0.4550)    +
 +          20        0.900452     (  0.0000  0.0000  0.4950)    +
 +                                                               +
 + ------------------------------------------------------------- +
 +  Spin=2 kpt=    6 ( 0.00000  0.00000  0.00000)                +
 + ------------------------------------------------------------- +
 +                                                               +
 +           1       -0.214911     (  0.0000  0.0000  0.0000)    +
 +           2       -0.202793     (  0.0000  0.0000 -0.0500)    +
 +           3       -0.202793     (  0.0000  0.0000  0.0500)    +
 +           4       -0.166359     (  0.0000  0.0000 -0.1000)    +
 +           5       -0.166359     (  0.0000  0.0000  0.1000)    +
 +           6       -0.105538     (  0.0000  0.0000 -0.1500)    +
 +           7       -0.105538     (  0.0000  0.0000  0.1500)    +
 +           8       -0.020454     (  0.0000  0.0000 -0.2000)    +
 +           9       -0.020454     (  0.0000  0.0000  0.2000)    +
 +          10        0.088931     (  0.0000  0.0000 -0.2500)    +
 +          11        0.088931     (  0.0000  0.0000  0.2500)    +
 +          12        0.223196     (  0.0000  0.0000 -0.3000)    +
 +          13        0.223196     (  0.0000  0.0000  0.3000)    +
 +          14        0.382516     (  0.0000  0.0000 -0.3500)    +
 +          15        0.382516     (  0.0000  0.0000  0.3500)    +
 +          16        0.568009     (  0.0000  0.0000 -0.4000)    +
 +          17        0.568009     (  0.0000  0.0000  0.4000)    +
 +          18        0.777128     (  0.0000  0.0000 -0.4500)    +
 +          19        0.777128     (  0.0000  0.0000  0.4500)    +
 +          20        0.901992     (  0.0000  0.0000 -0.5000)    +
 +                                                               +
 + ------------------------------------------------------------- +
 +  Spin=2 kpt=    7 ( 0.00000  0.00000  0.10000)                +
 + ------------------------------------------------------------- +
 +                                                               +
 +           1       -0.214790     (  0.0000  0.0000  0.0050)    +
 +           2       -0.205096     (  0.0000  0.0000 -0.0450)    +
 +           3       -0.200246     (  0.0000  0.0000  0.0550)    +
 +           4       -0.171100     (  0.0000  0.0000 -0.0950)    +
 +           5       -0.161374     (  0.0000  0.0000  0.1050)    +
 +           6       -0.112715     (  0.0000  0.0000 -0.1450)    +
 +           7       -0.098119     (  0.0000  0.0000  0.1550)    +
 +           8       -0.030051     (  0.0000  0.0000 -0.1950)    +
 +           9       -0.010615     (  0.0000  0.0000  0.2050)    +
 +          10        0.076885     (  0.0000  0.0000 -0.2450)    +
 +          11        0.101227     (  0.0000  0.0000  0.2550)    +
 +          12        0.208637     (  0.0000  0.0000 -0.2950)    +
 +          13        0.238006     (  0.0000  0.0000  0.3050)    +
 +          14        0.365460     (  0.0000  0.0000 -0.3450)    +
 +          15        0.399829     (  0.0000  0.0000  0.3550)    +
 +          16        0.548152     (  0.0000  0.0000 -0.3950)    +
 +          17        0.588167     (  0.0000  0.0000  0.4050)    +
 +          18        0.756465     (  0.0000  0.0000 -0.4450)    +
 +          19        0.797172     (  0.0000  0.0000  0.4550)    +
 +          20        0.900452     (  0.0000  0.0000 -0.4950)    +
 +                                                               +
 + ------------------------------------------------------------- +
 +  Spin=2 kpt=    8 ( 0.00000  0.00000  0.20000)                +
 + ------------------------------------------------------------- +
 +                                                               +
 +           1       -0.214426     (  0.0000  0.0000  0.0100)    +
 +           2       -0.207157     (  0.0000  0.0000 -0.0400)    +
 +           3       -0.197455     (  0.0000  0.0000  0.0600)    +
 +           4       -0.175597     (  0.0000  0.0000 -0.0900)    +
 +           5       -0.156145     (  0.0000  0.0000  0.1100)    +
 +           6       -0.119650     (  0.0000  0.0000 -0.1400)    +
 +           7       -0.090457     (  0.0000  0.0000  0.1600)    +
 +           8       -0.039406     (  0.0000  0.0000 -0.1900)    +
 +           9       -0.000533     (  0.0000  0.0000  0.2100)    +
 +          10        0.065086     (  0.0000  0.0000 -0.2400)    +
 +          11        0.113773     (  0.0000  0.0000  0.2600)    +
 +          12        0.194329     (  0.0000  0.0000 -0.2900)    +
 +          13        0.253066     (  0.0000  0.0000  0.3100)    +
 +          14        0.348656     (  0.0000  0.0000 -0.3400)    +
 +          15        0.417400     (  0.0000  0.0000  0.3600)    +
 +          16        0.528599     (  0.0000  0.0000 -0.3900)    +
 +          17        0.608616     (  0.0000  0.0000  0.4100)    +
 +          18        0.735403     (  0.0000  0.0000 -0.4400)    +
 +          19        0.816343     (  0.0000  0.0000  0.4600)    +
 +          20        0.895878     (  0.0000  0.0000 -0.4900)    +
 +                                                               +
 + ------------------------------------------------------------- +
 +  Spin=2 kpt=    9 ( 0.00000  0.00000  0.30000)                +
 + ------------------------------------------------------------- +
 +                                                               +
 +           1       -0.213821     (  0.0000  0.0000  0.0150)    +
 +           2       -0.208975     (  0.0000  0.0000 -0.0350)    +
 +           3       -0.194422     (  0.0000  0.0000  0.0650)    +
 +           4       -0.179850     (  0.0000  0.0000 -0.0850)    +
 +           5       -0.150671     (  0.0000  0.0000  0.1150)    +
 +           6       -0.126341     (  0.0000  0.0000 -0.1350)    +
 +           7       -0.082553     (  0.0000  0.0000  0.1650)    +
 +           8       -0.048519     (  0.0000  0.0000 -0.1850)    +
 +           9        0.009792     (  0.0000  0.0000  0.2150)    +
 +          10        0.053535     (  0.0000  0.0000 -0.2350)    +
 +          11        0.126570     (  0.0000  0.0000  0.2650)    +
 +          12        0.180274     (  0.0000  0.0000 -0.2850)    +
 +          13        0.268376     (  0.0000  0.0000  0.3150)    +
 +          14        0.332102     (  0.0000  0.0000 -0.3350)    +
 +          15        0.435236     (  0.0000  0.0000  0.3650)    +
 +          16        0.509346     (  0.0000  0.0000 -0.3850)    +
 +          17        0.629339     (  0.0000  0.0000  0.4150)    +
 +          18        0.714123     (  0.0000  0.0000 -0.4350)    +
 +          19        0.834352     (  0.0000  0.0000  0.4650)    +
 +          20        0.888400     (  0.0000  0.0000 -0.4850)    +
 +                                                               +
 + ------------------------------------------------------------- +
 +  Spin=2 kpt=   10 ( 0.00000  0.00000  0.40000)                +
 + ------------------------------------------------------------- +
 +                                                               +
 +           1       -0.212973     (  0.0000  0.0000  0.0200)    +
 +           2       -0.210550     (  0.0000  0.0000 -0.0300)    +
 +           3       -0.191145     (  0.0000  0.0000  0.0700)    +
 +           4       -0.183859     (  0.0000  0.0000 -0.0800)    +
 +           5       -0.144954     (  0.0000  0.0000  0.1200)    +
 +           6       -0.132789     (  0.0000  0.0000 -0.1300)    +
 +           7       -0.074407     (  0.0000  0.0000  0.1700)    +
 +           8       -0.057390     (  0.0000  0.0000 -0.1800)    +
 +           9        0.020360     (  0.0000  0.0000  0.2200)    +
 +          10        0.042231     (  0.0000  0.0000 -0.2300)    +
 +          11        0.139618     (  0.0000  0.0000  0.2700)    +
 +          12        0.166470     (  0.0000  0.0000 -0.2800)    +
 +          13        0.283935     (  0.0000  0.0000  0.3200)    +
 +          14        0.315798     (  0.0000  0.0000 -0.3300)    +
 +          15        0.453342     (  0.0000  0.0000  0.3700)    +
 +          16        0.490390     (  0.0000  0.0000 -0.3800)    +
 +          17        0.650307     (  0.0000  0.0000  0.4200)    +
 +          18        0.692775     (  0.0000  0.0000 -0.4300)    +
 +          19        0.850886     (  0.0000  0.0000  0.4700)    +
 +          20        0.878225     (  0.0000  0.0000 -0.4800)    +
 +                                                               +
 + ------------------------------------------------------------- +
 +  Spin=2 kpt=   11 ( 0.00000  0.00000  0.50000)                +
 + ------------------------------------------------------------- +
 +                                                               +
 +           1       -0.211883     (  0.0000  0.0000  0.0250)    +
 +           2       -0.211883     (  0.0000  0.0000 -0.0250)    +
 +           3       -0.187624     (  0.0000  0.0000  0.0750)    +
 +           4       -0.187624     (  0.0000  0.0000 -0.0750)    +
 +           5       -0.138993     (  0.0000  0.0000  0.1250)    +
 +           6       -0.138993     (  0.0000  0.0000 -0.1250)    +
 +           7       -0.066019     (  0.0000  0.0000  0.1750)    +
 +           8       -0.066019     (  0.0000  0.0000 -0.1750)    +
 +           9        0.031173     (  0.0000  0.0000  0.2250)    +
 +          10        0.031173     (  0.0000  0.0000 -0.2250)    +
 +          11        0.152918     (  0.0000  0.0000  0.2750)    +
 +          12        0.152918     (  0.0000  0.0000 -0.2750)    +
 +          13        0.299742     (  0.0000  0.0000  0.3250)    +
 +          14        0.299742     (  0.0000  0.0000 -0.3250)    +
 +          15        0.471725     (  0.0000  0.0000  0.3750)    +
 +          16        0.471725     (  0.0000  0.0000 -0.3750)    +
 +          17        0.671474     (  0.0000  0.0000  0.4250)    +
 +          18        0.671474     (  0.0000  0.0000 -0.4250)    +
 +          19        0.865619     (  0.0000  0.0000  0.4750)    +
 +          20        0.865619     (  0.0000  0.0000 -0.4750)    +
 +                                                               +
 + ============================================================= +

------------------------------ TIMING INFORMATION ------------------------------
TOTAL TIME:     637.223s on     4 node(s)
================== AVERAGE TIMINGS FROM ALL NODES (CUMULATIVE) =================
|| TAG                                   n calls    cpu time   %total  Gflops ||
|| total_time                          :       1     637.22s 100.000%  ------ ||
|| ewald_calculate_energy              :       1       0.01s   0.001%  ------ ||
|| sparse_init                         :       1       0.00s   0.000%  ------ ||
|| integrals_brappd_ketppd             :      28       0.08s   0.012%  ------ ||
|| integrals_kinetic                   :      28       8.05s   1.263%  ------ ||
|| basis_copy_function_to_box          :     700       2.55s   0.400%  ------ ||
|| fourier_apply_box_pair              :     344      11.80s   1.852%   4.596 ||
|| fourier_apply_box                   :    2544     217.14s  34.076%   8.777 ||
|| basis_extract_function_from_box     :    4105       0.47s   0.073%  ------ ||
|| sparse_hotelling_invert             :      28       0.03s   0.005%  ------ ||
|| pseudo_make_structure_factor        :       1       0.25s   0.040%  ------ ||
|| pseudopotentials_local_on_grid      :       1       0.17s   0.027%  ------ ||
|| fourier_apply_cell_backward         :      58       6.96s   1.092%   1.891 ||
|| density_initial_guess_recip         :       1       0.22s   0.035%  ------ ||
|| hartree_on_grid                     :      56      17.23s   2.704%  ------ ||
|| fourier_apply_cell_forward          :      56       7.00s   1.099%   1.814 ||
|| integrals_locpot_dbl_grid           :      57     163.38s  25.639%  ------ ||
|| potential_apply_to_ngwf_batch       :      57     161.31s  25.314%  ------ ||
|| cell_grid_extract_box               :     524      43.72s   6.861%  ------ ||
|| palser_mano_kernel_optimise         :       1       0.00s   0.001%  ------ ||
|| penalty_denskernel_optimise_cg      :       1      58.93s   9.247%  ------ ||
|| density_on_dbl_grid                 :      55     276.13s  43.334%  ------ ||
|| density_batch_row_sums              :      55       0.97s   0.153%  ------ ||
|| basis_add_function_to_box           :   11770       1.73s   0.271%  ------ ||
|| density_batch_interp_deposit        :      55     259.16s  40.670%  ------ ||
|| density_fftbox_interpolate_multiply :     275     198.27s  31.115%  ------ ||
|| density_fftbox_deposit_to_cell      :     275      60.89s   9.555%  ------ ||
|| cell_grid_deposit_box               :     550      60.88s   9.554%  ------ ||
|| xc_energy_potential                 :      55      13.28s   2.084%  ------ ||
|| ngwf_cg_optimise                    :       1     558.59s  87.659%  ------ ||
|| lnv_denskernel_optimise_cg          :      13     282.66s  44.358%  ------ ||
|| kernel_fix                          :      19       0.08s   0.013%  ------ ||
|| kernel_purify                       :      76       0.06s   0.010%  ------ ||
|| lnv_gradient_norm                   :      19       0.03s   0.005%  ------ ||
|| ngwf_gradient_lnv                   :      13     134.08s  21.041%  ------ ||
|| ngwf_gradient_coeffs                :      13       0.03s   0.004%  ------ ||
|| ngwf_gradient_batch                 :      13     129.24s  20.282%  ------ ||
|| hamiltonian_energy_components       :       3      44.17s   6.932%  ------ ||
|| properties_calculate                :       1      12.20s   1.914%  ------ ||
================================================================================

Job completed: 28-05-2011 01:42 (+0100)

