Defaulting to ethernet
No MPI process pinning
Starting MPD ring...
PBS has allocated the following nodes:
cx1-8-5-1
cx1-8-5-1
cx1-8-5-1
cx1-8-5-1
---
mpiexec.intel -genv I_MPI_DEVICE ssm -genv I_MPI_DEBUG 0 -genv I_MPI_PIN no -genv I_MPI_PIN_MODE none -genv I_MPI_FALLBACK_DEVICE disable -genv DAPL_MAX_CM_RETRIES 500 -genv DAPL_MAX_CM_RESPONSE_TIME 300 -genv I_MPI_DAPL_CONNECTION_TIMEOUT 300 -machinefile /tmp/pbs.5705180.cx1/tmp.AaBFm25835 -n 4 -wdir /home/nhine/ONETEP/devel/tests/test22 /home/nhine/ONETEP/devel/bin/onetep.cx1 acetonitrile_solvation

Job output begins below
-----------------------
 +---------------------------------------------------------------+
 |                                                               |
 |        ####### #     # ####### ####### ####### ######         |
 |        #     # ##    # #          #    #       #     #        |
 |        #     # # #   # #          #    #       #     #        |
 |        #     # #  #  # #####      #    #####   ######         |
 |        #     # #   # # #          #    #       #              |
 |        #     # #    ## #          #    #       #              |
 |        ####### #     # #######    #    ####### #              |
 |                                                               |
 |        Linear-Scaling Ab Initio Total Energy Program          |
 |                                                               |
 |          Release for academic collaborators of ODG            |
 |                                              Version 3.0      |
 |                                                               |
 +---------------------------------------------------------------+
 |                                                               |
 |  Authors:                                                     |
 |  Peter D. Haynes, Nicholas D. M. Hine, Arash. A. Mostofi,     |
 |  Mike C. Payne and Chris-Kriton Skylaris                      |
 |                                                               |
 |  Contributors:                                                |
 |  P. W. Avraam, S. J. Clark, O. Dieguez, S. M. M. Dubois,      |
 |  J. Dziedzic, H. H. Helal, Q. O. Hill, D. D. O`Regan,         |
 |  C. J. Pickard, M. I. J. Probert, L. Ratcliff, M. Robinson    |
 |  and A. Ruiz Serrano                                          |
 |                                                               |
 |                                   Copyright (c) 2004-2011     |
 |                                                               |
 |  Please cite:                                                 |
 |  "Introducing ONETEP: Linear-scaling density functional       |
 |   simulations on parallel computers".                         |
 |   C.-K. Skylaris, P. D. Haynes, A. A. Mostofi, M. C. Payne.   |
 |   J. Chem. Phys. 122 084119 (2005).                           |
 |                                                               |
 |          in all publications arising from your use of ONETEP. |
 |                                                               |
 +---------------------------------------------------------------+
 |                                                               |
 |   ONETEP is based on developments described in the following  |
 |   publications:                                               |
 |                                                               |
 |  "Nonorthogonal generalized Wannier function pseudopotential  |
 |   plane-wave method".                                         |
 |   C.-K. Skylaris, A. A. Mostofi, P. D. Haynes, O. Dieguez,    |
 |   M. C. Payne.                                                |
 |   Phys. Rev. B 66 035119 (2002).                              |
 |                                                               |
 |  "Preconditioned iterative minimization for linear-scaling    |
 |   electronic structure calculations".                         |
 |   A. A. Mostofi, P. D. Haynes, C.-K. Skylaris, M. C. Payne.   |
 |   J. Chem. Phys. 119(17), pp.8842-8848 (2003).                |
 |                                                               |
 |  "Total-energy calculations on a real space grid with         |
 |   localized functions and a plane-wave basis".                |
 |   A. A. Mostofi, C.-K. Skylaris, P. D. Haynes, M. C. Payne.   |
 |   Comput. Phys. Commun. 147, pp.788-802 (2002).               |
 |                                                               |
 |  "Accurate kinetic energy evaluation in electronic structure  |
 |   calculations with localized functions on real space grids"  |
 |   C.-K. Skylaris, A. A. Mostofi, P. D. Haynes, C. J. Pickard, |
 |   M. C. Payne.                                                |
 |   Comput. Phys. Commun. 140, pp.315-322 (2001).               |
 |                                                               |
 +---------------------------------------------------------------+

Job started: 28-05-2011 02:00 (+0100)

Running on     4 processors.

Reading parameters from file "acetonitrile_solvation.dat" ...... done
Reading geometry and species blocks from file "acetonitrile_solvation.dat" ...
  <species_atomic_set> block not found: NGWF initialisation set to AUTO
    
  PSINC grid spacing along a1 set to   0.500000000000a0 from input file.
  PSINC grid spacing along a2 set to   0.500000000000a0 from input file.
  PSINC grid spacing along a3 set to   0.500000000000a0 from input file.
... done
-------------------------------------------------------------------------------
---------------------------- RUN-TIME PARAMETERS ------------------------------
-------------------------------------------------------------------------------
task                      : SINGLEPOINT *! Type of calculation (String)         
cutoffenergy              : 20.0000000000000      hartree *! Plane wave kinetic 
kernelcutoff              : 1000.00000000000 *! Density kernel radius in Bohr ( 
xcfunctional              : PBE *! Exchange-correlation functional (String)     
libxcxfuncid              : 0 *! Functional identifier for which exchange funct 
libxccfuncid              : 0 *! Functional identifier for which correlation fu 
charge                    : 0.000000000000000E+000 *! The total charge of the s 
spin                      : 0 *! Total spin of system (Integer)                 
spinpolarized             : F *! Switch for spin polarization (Boolean)         
spinpolarised             : F *! Switch for spin polarisation (Boolean)         
constantefield            : 0.0 0.0 0.0 *! Cartesian coordinates of constant el 
fftboxpref                : 0 0 0 *! Preferred FFT box dimensions (String)      
ppdnpoints                : 0 0 0 *! PPD edge length in grid points for each la 
psincspacing              : 0.5 0.5 0.5 *! PSINC grid spacing in atomic units ( 
oldinput                  : F *! Read old-format input file (Boolean)           
develcode                 : *! For development code only (String)               
nnho                      : F *! Initialise NGWFs to nonorthogonal natural hybr 
ngwfhalo                  : -1.00000000000000 *! Halo extension to NGWF radii ( 
nonscforces               : F *! Include non self-consistent forces due to NGWF 
maxitpalsermano           : 50 *! Maximum number of iterations for Palser-Manol 
maxitpen                  : 0 *! Max number of penalty functional iterations (I 
penparam                  : 4.00000000000000 *! Penalty functional parameter (D 
minitlnv                  : 3 *! Min number of LNV iterations (Integer)         
maxitlnv                  : 3 *! Max number of LNV iterations (Integer)         
maxitlnvcoarse            : 0 *! Max number of low-accuracy LNV iterations (Int 
lnvthresholdorig          : 1.000000000000000E-009 *! LNV convergence threshold 
lnvcgtype                 : LNV_FLETCHER *! Type of CG coefficient for LNV dens 
lnvcgmaxstep              : 3.00000000000000 *! Maximum length of trial step fo 
exactlnv                  : T *! Use original LNV algorithm (Boolean)           
oldlnv                    : F *! Use LNV algorithm backwards compatible pre Dec 
lnvchecktrialsteps        : F *! Check stability of kernel at each trial step d 
kerfix                    : 1 *! Density kernel fixing approach (Integer)       
maxitkernelfix            : 3 *! Maximum # iterations of Penalty Functional ide 
initialdensrealspace      : F *! Construct initial density in real space from a 
kerneldiis                : F *! Use kernel DIIS in the inner loop (Boolean)    
kerneldiistype            : P *! Density mixing method (String)                 
kerneldiismax             : 10 *! Max number of kernels saved during kernel DII 
kerneldiismaxit           : 25 *! Max number of kernel DIIS iterations (Integer 
kerneldiisthres           : 1.000000000000000E-009 *! Density mixing convergenc 
kerneldiisliter           : 5 *! Number of linear mixing iterations (Integer)   
kerneldiiscin             : 0.900000000000000 *! Coefficient for the input kern 
kerneldiiscriteria        : 1000 *! Density mixing convergence criteria (String 
maxitngwfcg               : 2 *! Max number of NGWF conjugate gradients (CG) it 
ngwfcgtype                : NGWF_FLETCHER *! Type of CG coefficient for NGWF op 
ngwfcgmaxstep             : -8.00000000000000 *! Maximum length of trial step f 
eleccgmax                 : 0 *! Number of NGWF iterations to reset CG (Integer 
precondscheme             : TETER *! Recip-space preconditioning scheme (String 
kzero                     : 3.00000000000000 *! KE preconditioning parameter (D 
rprecond                  : 2.00000000000000 *! Radial cut-off for real-space p 
precondrecip              : T *! Recip-space KE preconditioning (Boolean)       
precondreal               : F *! Real-space KE preconditioning (Boolean)        
smoothscheme              : NONE *! Smoothing scheme for the NGWF gradients at  
rsmooth                   : 1.50000000000000      bohr *! Radius of the unshave 
ksmooth                   : 5.00000000000000 *! Characteristic wavelength of th 
occmix                    : 1.00000000000000 *! Mix fraction of occupancy preco 
kernelupdate              : F *! Update density kernel during NGWF line search  
kernelchristoffelupdate   : F *! Update density kernel during NGWF line search  
maxithotelling            : 50 *! Number of Hotelling iteration per NGWF change 
maxresidhotelling         : 1.000000000000000E-012 *! Max allowed value in Hote 
maxitngwfdiis             : 0 *! Max number of NGWF DIIS steps (Integer)        
ngwfdiissize              : 4 *! Max size of the DIIS iterative subspace (Integ 
ngwfdiisreset             : 8 *! Max number of iteration for the resetting of D 
ngwfdiismaxstep           : 2.00000000000000 *! Max length of trial step for NG 
ngwfthresholdorig         : 2.000000000000000E-006 *! NGWF convergence threshol 
elecenergytol             : -1.000000000000000E-003 hartree *! Tolerance on tot 
elecforcetol              : -1.000000000000000E-003 ha/bohr *! Tolerance on max 
ngwfmaxgrad               : -2.000000000000000E-005 *! Maximum permissible valu 
deltaeconv                : T *! Use consecutive energy gains as a criterion fo 
locpotintbatchsize        : 10 *! Size of NGWF in fftbox batch for locpot integ 
kineticintbatchsize       : 10 *! Size of NGWF in fftbox batch for kinetic inte 
densitybatchsize          : 10 *! Size of NGWF in fftbox batch for charge densi 
ngwfgradbatchsize         : 10 *! Size of NGWF in fftbox batch for NGWF gradien 
densethreshold            : 0.400000000000000 *! Threshold for matrix segment f 
commsgroupsize            : 4 *! Number of nodes in a group (determines comms e 
ovlpfornonlocal           : F *! Overlap sparsity for nonlocal (Boolean)        
usespacefillingcurve      : T *! Re-arrange atoms according to space-filling cu 
corehamdenskernguess      : T *! Initial guess for density kernel from core Ham 
checkatoms                : T *! Check atoms on top of each other (Boolean)     
locpotscheme              : FULL *! Scheme for evaluating local potential matri 
smoothprojectors          : -0.400000000000000 *! Halfwidth of Gaussian filter  
smoothlocpspot            : -0.400000000000000 *! Halfwidth of Gaussian filter  
oddpsincgrid              : F *! Force odd number of points in simcell psinc gr 
evenpsincgrid             : F *! Force even number of points in simcell psinc g 
realspaceprojectors       : F *! Whether to evaluate and store projectors in re 
outputdetail              : VERBOSE *! Level of output detail (String)          
pawoutputdetail           : DEFAULT *! Level of output detail for PAW: BRIEF, N 
timingslevel              : 0 *! Level of timings output: 0(none) 1(nodes summa 
writeparams               : T *! Output runtime parameters at startup (Boolean) 
writeforces               : F *! Write ionic forces (Boolean)                   
writepositions            : T *! Write ionic positions each geometry or MD step 
writexyz                  : F *! Output coordinates in .xyz file (Boolean)      
printqc                   : T *! Print Quality Control information (Boolean)    
cubeformat                : F *! Allow .cube format for plot outputs (Boolean)  
dxformat                  : F *! Allow .dx format for plot outputs (Boolean)    
dxformatcoarse            : F *! Output only points on the coarse grid (Boolean 
dxformatdigits            : 7 *! Number of significant digits in .dx output (In 
grdformat                 : T *! Allow .grd format for plot outputs (Boolean)   
writedensityplot          : T *! Write the charge density in plotting format (B 
writengwfplot             : F *! Write NGWFs in plotting format (Boolean)       
writengwfgradplot         : F *! Write NGWF Gradients in plotting format (Boole 
writengwfradial           : F *! Write NGWFs radial distributions (Boolean)     
writengwfgradradial       : F *! Write NGWFs gradients radial distributions (Bo 
writeradialstep           : 5.000000000000000E-003 bohr *! Define the grid step 
writeradialsmear          : 1.000000000000000E-002 bohr *! Define the gaussian  
readdenskern              : F *! Read density kernel restart information (Boole 
writedenskern             : F *! Write density kernel restart information (Bool 
readtightboxngwfs         : F *! Read in universal tightbox NGWFs restart infor 
writetightboxngwfs        : F *! Write in universal tightbox NGWFs restart info 
writeconvergeddkngwfs     : F *! Only write Density Kernel and NGWFs upon conve 
readswngwfs               : F *! Read NGWFs restart information in spherical wa 
writeswngwfs              : F *! Write NGWFs restart information in spherical w 
writemaxl                 : 3 *! Maximum angular momentum number when writing i 
readmaxl                  : 3 *! Maximum angular momentum number when reading i 
extransw                  : 0 *! Maximum number of zeros of the sph Bessel func 
paw                       : F *! Uses a PAW construction to find correct core d 
finegridscale             : 3.00000000000000 *! Ratio of size of fine grid to s 
dblgridscale              : 2.00000000000000 *! Ratio of charge density / poten 
augfuncsrecip             : T *! Construct Augmentation functions in recip spac 
dispersion                : 0 *! Select dispersion correction (Integer)         
vdwdcoeff                 : -1.00000000000000 *! Replacement VDW damping coeffi 
hubbardmaxiter            : 0 *! Maximum number of DFT+U projector optimisation 
hubbardenergytol          : 1.000000000000000E-008 hartree *! Energy tolerance  
hubbardconvwin            : 2 *! Energy convergence window when using DFT+U pro 
hubbardprojmixing         : 0.000000000000000E+000 *! Proportion of old Hubbard 
hubbardfunctional         : 1 *! DFT+U energy functional to use (Integer)       
hubbardtensorcorr         : 1 *! DFT+U projector tensorial correction to use (I 
hubbardngwfspinthreshold  : 2.000000000000000E-005 *! NGWF RMS  gradient thresh 
coulombcutoffradius       : 0.000000000000000E+000 *! Radius of sphere or cylin 
coulombcutofflength       : 0.000000000000000E+000 *! Length of cylinder or wid 
coulombcutofftype         : NONE *! Type of cutoff coulomb interaction: NONE, S 
coulombcutoffwriteint     : F *! Write real-space cutoff Coulomb interaction sc 
pbccorrectioncutoff       : 0.000000000000000E+000 *! alpha*L cutoff parameter  
doproperties              : F *! Allow calculation of properties (Boolean)      
numeigenvalues            : 10 *! Number of energy and occupancy eigenvalues to 
homodensplot              : -1 *! Number of squared MOs to plot from HOMO and l 
lumodensplot              : -1 *! Number of squared MOs to plot from LUMO and h 
homoplot                  : 5 *! Number of MOs to plot from HOMO and lower (Int 
lumoplot                  : 5 *! Number of MOs to plot from LUMO and higher (In 
dossmear                  : 3.674932438755288E-003 hartree *! Half width of sme 
ldossmear                 : 3.674932438755288E-003 hartree *! Lorentzian broade 
popncalculate             : F *! Allow population analysis (Boolean)            
popnbondcutoff            : 5.66917840375065      bohr *! Bond length cutoff fo 
ngwfanalysis              : F *! Perform NGWF analysis (Boolean)                
polarisationcalculate     : F *! Allow calculation of polarisation (Boolean)    
spreadcalculate           : F *! Calculate spread of NGWFs (Boolean)            
geommodulusest            : 1.700000000000000E-002 ha/bohr**3 *! The estimated  
geomfrequencyest          : 7.600000000000000E-003 hartree *! The estimated ave 
geomenergytol             : 1.000000000000000E-006 hartree *! Geometry optimiza 
geomforcetol              : 2.000000000000000E-003 ha/bohr *! Geometry optimiza 
geomdisptol               : 5.000000000000000E-003 bohr *! Geometry optimizatio 
geommaxiter               : 50 *! Maximum number of geometry optimization itera 
geomconvergencewin        : 2 *! Geometry optimization convergence tolerance wi 
geomcontinuation          : F *! Read information for continuation of a previou 
geombackupiter            : 1 *! Number of geometry optimisation iterations bet 
geomresetdkngwfsiter      : 6 *! Number of geom iterations between resets of ke 
geomreusedkngwfs          : T *! Re-use density kernel and NGWFs during geometr 
geomprintinvhessian       : F *! Write inverse Hessian to standard output (Bool 
geommethod                : CARTESIAN *! Method for geometry optimization (Stri 
tssearchmethod            : LSTQST *! Specifies method to be used for TS search 
tssearchlstqstprotocol    : LSTMAXIMUM *! Specifies LSTQST protocol (String)    
tssearchqstmaxiter        : 5 *! Specifies maximum number of QST steps (Integer 
tssearchcgmaxiter         : 20 *! Specifies maximum number of CG steps (Integer 
tssearchforcetol          : 5.000000000000000E-003 ha/bohr *! Force tolerance f 
tssearchdisptol           : 1.000000000000000E-002 bohr *! Displacement toleran 
mddeltat                  : 40.0000000000000      aut *! Molecular dynamics tim 
mdnumiter                 : 100 *! Maximum number of molecular dynamics iterati 
mdtemperature             : 9.500000000000000E-004 hartree *! Temperature for m 
mdalgorithm               : LEAPFROGVERLET *! Integration algorithm for molecul 
mdthermostat              : NONE *! Thermostat for molecular dynamics (String)  
mdcollisionfrequency      : 0.152000000000000      hartree *! Collision frequen 
mixdenskern               : 0 *! Number of coefficients used to build new guess 
mixngwfs                  : 0 *! Number of coefficients used to build new guess 
condreaddenskern          : F *! Read in conduction density kernel (Boolean)    
condreadtightboxngwfs     : F *! Read in universal tightbox conduction NGWFs (B 
condfixedshift            : F *! Fixed projected conduction Hamiltonian shift ( 
condcalcmaxeigen          : T *! Calculate maximum conduction Hamiltonian eigen 
condnumstates             : 0 *! Number of conduction states to be optimised fo 
condkernelcutoff          : 1000.00000000000 *! Conduction density kernel radiu 
condinitshift             : 0.000000000000000E+000 *! Initial shifting factor f 
condshiftbuffer           : 0.100000000000000 *! Additional buffer for updating 
condnumextrastates        : 0 *! Number of extra conduction states for initial  
condnumextraits           : 0 *! Number of NGWF iterations with extra conductio 
condplotjointorbitals     : T *! Plot orbitals in the joint basis following a c 
condplotvcorbitals        : T *! Plot orbitals in the val and cond NGWF basis s 
condcalcopticalspectra    : F *! Calculate matrix elements for optical absorpti 
condspeccalcmommatels     : T *! Calculate momentum matrix elements (default tr 
condspeccalcnonloccomm    : T *! Calculate nonlocal commutator for momentum mat 
condspeccontderiv         : T *! Calculate non-local commuator using continuous 
condspecnonloccommshift   : 1.000000000000000E-004 *! Finite difference shift f 
bskpointpathspacing       : 0.188972700000000      1/bohr *! K-point spacing al 
bsnumeigenvalues          : -1 *! Num of energy and occ. eigenvalues to print b 
bsunfold                  : 0 0 0 *! Number of times to unfold Brillouin zone i 
bsmethod                  : TB *! Method to use: 'KP' or 'TB' (String)          
dotddft                   : F *! Allow Time-Dependent DFT calculation (Boolean) 
tddftmaximumenergy        : 1.00000000000000      hartree *! Desired maximum of 
tddftresolution           : 1.000000000000000E-003 hartree *! Desired resolutio 
tddftpropagationmethod    : CRANKNICHOLSON *! Method used to integrate von Neum 
tddftsparsitylevel        : 0 *! Matrix sparsity when computing propagators e.g 
tddfttammdancoff          : F *! Invoke Tamm-Dancoff decoupling approximation ( 
tddftdipolekickstrength   : 0.0 0.0 0.0 *! Maximum allowed phase shift in TDDFT 
tddftxcfunctional         : LDA *! Exchange-correlation functional for TDDFT (S 
tddfthamiltonianmixing    : 0 *! Order of polynomial extrapolation to H(t + hal 
tddftdamping              : 0.000000000000000E+000 hartree *! Energy smearing w 
tddftenforcedidempotency  : F *! Project out at each timestep that part of chan 
tddftmaxithotelling       : 50 *! Number of Hotelling iteration per propagation 
tddftmaxresidhotelling    : 1.000000000000000E-018 *! Max allowed value in Hote 
tddftinvoverlapexact      : T *! Renew inverse overlap with O N^3 algorithm bef 
isimplicitsolvent         : T *! Use implicit solvent? (Boolean)                
issmearedionrep           : T *! Implicit solvent: use smeared ions for electro 
isincludecavitation       : T *! Implicit solvent: include cavitation energy (B 
isdensitythreshold        : 3.500000000000000E-004 *! Implicit solvent: rho_0 p 
issolvationbeta           : 1.30000000000000 *! Implicit solvent: beta paramete 
isbulkpermittivity        : 78.5400000000000 *! Implicit solvent: eps_inf param 
ismultigriddefecterrortol : 1.000000000000000E-002 *! Implicit solvent: stop cr 
ismultigriderrortol       : 1.000000000000000E-005 *! Implicit solvent: stop cr 
issmearedionwidth         : 0.800000000000000 *! Implicit solvent: Width of Gau 
issurfacethickness        : 2.000000000000000E-004 *! Implicit solvent: thickne 
issolventsurfacetension   : 1.338590000000000E-005 ha/bohr**2 *! Implicit solve 
ismultigridmaxiters       : 100 *! Implicit solvent: max number of iterations i 
ismultigridnlevels        : 4 *! Implicit solvent: number of levels in multigri 
isdiscretizationorder     : 10 *! Implicit solvent: discretization order (2nd,  
isbccoarseness            : 3 *! Implicit solvent: controls boundary condition  
isbcsurfacecoarseness     : 3 *! Implicit solvent: controls boundary condition  
ischecksolvenergygrad     : F *! Implicit solvent: sanity check the energy grad 
issolvationmethod         : DIRECT *! Implicit solvent: direct or corrective me 
isdielectricmodel         : SELF_CONSISTENT *! Implicit solvent: how the cavity 
isdielectricfunction      : FGF *! Implicit solvent: how the cavity is determin 
issolvationoutputdetail   : NONE *! Implicit solvent: controls extra output (St 
openbcionion              : F *! Force open BCs in ion-ion energy (Boolean)     
openbchartree             : F *! Force open BCs in Hartree potential (Boolean)  
openbcpspot               : F *! Force open BCs in local pseudopotential (Boole 
openbcpspotfinetunenptsx  : 100000 *! Open BCs in local pseudo, npts_x paramete 
openbcpspotfinetunealpha  : 0.300000000000000 *! Open BCs in local pseudo, alph 
openbcpspotfinetunef      : -1 *! Open BCs in local pseudo, fineness parameter  
%block positionsabs       : *! Cartesian positions for each atom (Block)        
C      14.00000000      14.53351903      14.00000000                            
C      13.99982048      11.77500345      14.00000000                            
H      15.94190413      11.04495093      14.00000000                            
H      13.02877865      11.04502463      15.68193440                            
H      13.02877865      11.04502463      12.31806560                            
N      14.00023055      16.71626696      14.00000000                            
%endblock positionsabs    : *! Cartesian positions for each atom (Block)        
%block latticecart        : *! The simulation cell lattice vectors (Block)      
27.5000000   0.0000000   0.0000000                                              
0.0000000  27.5000000   0.0000000                                               
0.0000000   0.0000000  27.5000000                                               
%endblock latticecart     : *! The simulation cell lattice vectors (Block)      
%block species            : *! Species information (symbol, atomic number, numb 
H   H   1 1 7.0                                                                 
C   C   6 4 7.0                                                                 
N   N   7 4 7.0                                                                 
%endblock species         : *! Species information (symbol, atomic number, numb 
%block speciespot         : *! Pseudopotential name for each species (Block)    
H   "../../pseudo/hydrogen.recpot"                                              
C   "../../pseudo/carbon.recpot"                                                
N   "../../pseudo/nitrogen.recpot"                                              
%endblock speciespot      : *! Pseudopotential name for each species (Block)    
-------------------------------------------------------------------------------
-------------------------------------------------------------------------------

<<<<<<<<<<<<<<<<<<<<<<<<< Pseudopotential information >>>>>>>>>>>>>>>>>>>>>>>>>
File: ../../pseudo/carbon.recpot [ 2001 points up to Gmax=  52.9 (1/bohr)]
  Atomic number:  6;  ionic charge:  4.000000
    Shell 1: l = 0; rc = 1.48 bohr
File: ../../pseudo/hydrogen.recpot [ 2001 points up to Gmax=  52.9 (1/bohr)]
  Atomic number:  1;  ionic charge:  1.000000
    Local potential
File: ../../pseudo/nitrogen.recpot [ 2001 points up to Gmax=  52.9 (1/bohr)]
  Atomic number:  7;  ionic charge:  5.000000
    Shell 1: l = 0; rc = 1.48 bohr
<<<<<<<<<<<<<<<<<<<<<<<<<<<<<<<<<<<<<<< >>>>>>>>>>>>>>>>>>>>>>>>>>>>>>>>>>>>>>>

------------------------- Atom counting information ---------------------------
Symbol    Natoms    Nngwfs    Nprojs
  C          2         8         2
  H          3         3         0
  N          1         4         1
.......   ......    ......    ......
Totals:      6        15         3
-------------------------------------------------------------------------------
 
Determining parallel strategy ...
... using space-filling curve
... NGWF load balancing: max      5;  min      2;  average      4
... Projector load balancing: max      1;  min      0;  average      1
... done

Calculating direct Ion-Ion energy ...
Ion-Ion Energy        :        31.19388932693186
... FFT-box specified

Basis initialisation ...
... Atom positions lie inside simulation cell
... NGWF spheres initialised
... Projector spheres initialised
... NGWF tight boxes initialised
... NGWF basis size (local,global):       4184     26200
... Tight-boxes gathered
... done

============================== PSINC grid sizes ================================
                      Simulation cell:   55 x  55 x  55
                              FFT-box:   55 x  55 x  55
                                  PPD:    5 x   5 x   5
Grid space d1=  0.500000000000a0 (KE cutoff=  30.38533Eh = 826.82697eV)
Grid space d2=  0.500000000000a0 (KE cutoff=  30.38533Eh = 826.82697eV)
Grid space d3=  0.500000000000a0 (KE cutoff=  30.38533Eh = 826.82697eV)
================================================================================

********************** Fourier parallelisation information *********************
       Coarse grid (whole simulation cell) dimensions:     55    55    55

                 Real-space grid ('12' slabs):
                   Node    0:   13 (from    1 to   13)
                   Node    1:   14 (from   14 to   27)
                   Node    2:   14 (from   28 to   41)
                   Node    3:   14 (from   42 to   55)

                 Reciprocal-space grid ('23' slabs):
                   Node    0:    7 (from    1 to    7)
                   Node    1:    7 (from    8 to   14)
                   Node    2:    7 (from   15 to   21)
                   Node    3:    7 (from   22 to   28)
********************************************************************************

********************** Fourier parallelisation information *********************
       Double grid (whole simulation cell) dimensions:    110   110   110

                 Real-space grid ('12' slabs):
                   Node    0:   27 (from    1 to   27)
                   Node    1:   28 (from   28 to   55)
                   Node    2:   28 (from   56 to   83)
                   Node    3:   27 (from   84 to  110)

                 Reciprocal-space grid ('23' slabs):
                   Node    0:   14 (from    1 to   14)
                   Node    1:   14 (from   15 to   28)
                   Node    2:   14 (from   29 to   42)
                   Node    3:   14 (from   43 to   56)
********************************************************************************

********************** Fourier parallelisation information *********************
         Fine grid (whole simulation cell) dimensions:    166   166   166

                 Real-space grid ('12' slabs):
                   Node    0:   42 (from    1 to   42)
                   Node    1:   42 (from   43 to   84)
                   Node    2:   42 (from   85 to  126)
                   Node    3:   40 (from  127 to  166)

                 Reciprocal-space grid ('23' slabs):
                   Node    0:   21 (from    1 to   21)
                   Node    1:   21 (from   22 to   42)
                   Node    2:   21 (from   43 to   63)
                   Node    3:   21 (from   64 to   84)
********************************************************************************

=========================== Sparse matrix information ==========================
                        Overlap matrix filling: 100.00%
                        Density kernel filling: 100.00%
              NGWF-Proj overlap matrix filling: 100.00%
                    Hamiltonian matrix filling: 100.00%
                  NGWF diagonal matrix filling:  22.67%
                             KS matrix filling: 100.00% 
                           KSKS matrix filling: 100.00% 
================================================================================

Sparse matrix initialisation ... done
ONETEP fine grid is 166 x 166 x 166 gridpoints, 27.5000 x 27.5000 x 27.5000 bohr.
FD multigrid is     161 x 161 x 161 gridpoints, 26.6717 x 26.6717 x 26.6717 bohr.

NGWF initialisation ...... done

============ Calculation of NGWF S^-1 using Hotelling algorithm ================ 
         Iteration  |  Frobenius norm and Maximum abs value    (of I-S*S_n^-1)   
               1       0.34494817E+01     0.95347454E+00
               2       0.32081540E+01     0.91324976E+00
               3       0.29538525E+01     0.84664869E+00
               4       0.27342097E+01     0.74839116E+00
               5       0.25381510E+01     0.62592132E+00
               6       0.23309715E+01     0.59847540E+00
               7       0.20897277E+01     0.56461653E+00
               8       0.18154239E+01     0.50540254E+00
               9       0.14914039E+01     0.40866313E+00
              10       0.11377877E+01     0.39040510E+00
              11       0.89357254E+00     0.35927412E+00
              12       0.74607849E+00     0.30829302E+00
              13       0.55547299E+00     0.22944081E+00
              14       0.30854923E+00     0.12744005E+00
              15       0.95202624E-01     0.39321524E-01
              16       0.90635397E-02     0.37435123E-02
              17       0.82147751E-04     0.33929472E-04
              18       0.67482527E-08     0.27872291E-08
              19       0.56255046E-14     0.31086245E-14
================================================================================

Smeared ion self correction:     -29.920671


Smeared ion non-self correction: -31.077329
Calculating local pseudopotential in real space ...
Discrepancy between calculated realspace psloc and -Z/x on [5a0,47.631a0]:
max |rel. diff| # avg |rel. diff| #  avg rel. diff #  f # pseudopotential file
 0.000271683539    0.000040651504   0.000000978635   11  '../../pseudo/carbon.recpot'
 0.000542690958    0.000086380821   0.000000089469   11  '../../pseudo/hydrogen.recpot'
 0.000371290712    0.000050882047   0.000001675405   11  '../../pseudo/nitrogen.recpot'
... done

MG boundary conditions: total CG'ed q: -0.0000894 over 32748 coarse points
MG Solving with 2nd order solver... done
MG Starting defect correction with a discretization order of: 10
MG Iteration ***   |error|   ***  |defect|  *** |error eq'n residual|  <-- D I
MG         1    0.4599847E-01   0.309288E+00       0.679973311E-05     <-- D I
MG         2    0.5572269E-03   0.667102E-02       0.928095668E-07     <-- D I
MG         3    0.1329659E-04   0.104386E-02       0.516354998E-07     <-- D I
MG         4    0.1884103E-05   0.663447E-03       0.193951239E-07     <-- D I
MG Defect correct solution obtained.
MG  - final defect norm:   0.6634E-03
MG  - final error norm :   0.1884E-05
MG  - defect iterations:   4
MG Hartree energy from (\int phi*rho dr):                10.452496
MG Hartree energy from (\int eps (grad phi)^2 dr):       10.452496
MG Discrepancy due to finite box and discretization:     -0.000001 (  -0.00001%)
MG Correction to account for finite box:                  0.000000
MG Remaining discrepancy, due to discretization:         -0.000001 (  -0.00001%)
Up spin density kernel initialisation ... 
======= Optimisation of K by Palser-Manolopoulos canonical purification ======== 
         Iteration  |  Band structure energy |    c_n   
               1          -3.52023382042486    0.4980880
               2          -3.82131044762504    0.4966115
               3          -4.15385951706578    0.4987724
               4          -4.46449970862625    0.5097348
               5          -4.70698079456257    0.5228807
               6          -4.85686420219200    0.5180236
               7          -4.92728413800339    0.5046135
               8          -4.94530894853710    0.5002648
               9          -4.94645259578222    0.5000007
              10          -4.94645767117577    0.4999933
              11          -4.94645767128525    0.0402017
              12          -4.94645767128525   -0.1197447
Final occupancy bounds: [    0.00000000000000:    1.00000000000000]
Closest occupancy to 0.5:     1.00000000000000
================================================================================
... done

################################################################################
########################### NGWF CG iteration  001 #############################
################################################################################
****** Reciprocal space K.E. preconditioning with k_zero =  3.0000 a0^-1 *******
   Initial electron number for spin 1:      16.00000000
     Final electron number for spin 1:      16.00000000

=================== Penalty functional idempotency correction ==================
 RMS occupancy error at iteration   1:  0.000000 (step -0.5000 Ne1=     16.0000)
            Final RMS occupancy error   :  0.000000 (Ne1=     16.0000)
               Final occupancy bounds   : [  0.0000,  1.0000]
================================================================================

................................................................................
<<<<<<<<<<<<<< LNV (Original version) density kernel optimisation >>>>>>>>>>>>>>
~~~~~~~~~~~~~~~~~~~~~~~~~~~~~~~~~~~~~~~~~~~~~~~~~~~~~~~~~~~~~~~~~~~~~~~~~~~~~~~~
iter|       energy      |  rms DeltaK |  commutator |LScoef|CGcoef|      Ne    |
MG boundary conditions: total CG'ed q: -0.0000357 over 13469 coarse points
MG Solving with 2nd order solver... done
MG Starting defect correction with a discretization order of: 10
MG Iteration ***   |error|   ***  |defect|  *** |error eq'n residual|  <-- D I
MG         1    0.3989717E-01   0.372452E+00       0.146845122E-04     <-- D I
MG         2    0.6194116E-03   0.537565E-01       0.104846433E-05     <-- D I
MG         3    0.5086923E-04   0.343822E-01       0.683452904E-06     <-- D I
MG         4    0.2805979E-04   0.295269E-01       0.414985468E-06     <-- D I
MG         5    0.1510099E-04   0.279730E-01       0.254828875E-06     <-- D I
MG         6    0.7278848E-05   0.274284E-01       0.781226520E-07     <-- D I
MG Defect correct solution obtained.
MG  - final defect norm:   0.2743E-01
MG  - final error norm :   0.7279E-05
MG  - defect iterations:   6
MG Hartree energy from (\int phi*rho dr):                 5.520668
MG Hartree energy from (\int eps (grad phi)^2 dr):        5.520607
MG Discrepancy due to finite box and discretization:     -0.000060 (  -0.00109%)
MG Correction to account for finite box:                  0.000044
MG Remaining discrepancy, due to discretization:         -0.000016 (  -0.00029%)
      ideal mu1:      -0.499353747653
             Q0:     -20.979538849895
             G0:      -1.031690669955
   RMS gradient:       0.067714783220
    Initial Ne1:      16.00000000
      Final Ne1:      16.00000000

=================== Penalty functional idempotency correction ==================
 RMS occupancy error at iteration   1:  0.000915 (step -0.4979 Ne1=     16.0000)
 RMS occupancy error at iteration   2:  0.000001 (step -0.5000 Ne1=     16.0000)
            Final RMS occupancy error   :  0.000000 (Ne1=     16.0000)
               Final occupancy bounds   : [  0.0000,  1.0000]
================================================================================

 1    -20.97953884989536 0.00000000000 0.08629650415 0.1000  0.000   16.00000000
MG boundary conditions: total CG'ed q: -0.0000358 over 13605 coarse points
MG Solving with 2nd order solver... done
MG Starting defect correction with a discretization order of: 10
MG Iteration ***   |error|   ***  |defect|  *** |error eq'n residual|  <-- D I
MG         1    0.4005506E-01   0.362790E+00       0.134925964E-04     <-- D I
MG         2    0.6136593E-03   0.482300E-01       0.843476144E-06     <-- D I
MG         3    0.4413839E-04   0.312797E-01       0.549533292E-06     <-- D I
MG         4    0.2396081E-04   0.271878E-01       0.337478747E-06     <-- D I
MG         5    0.1287753E-04   0.259097E-01       0.211708681E-06     <-- D I
MG         6    0.7344851E-05   0.254702E-01       0.135735703E-06     <-- D I
MG Defect correct solution obtained.
MG  - final defect norm:   0.2547E-01
MG  - final error norm :   0.7345E-05
MG  - defect iterations:   6
MG Hartree energy from (\int phi*rho dr):                 5.536012
MG Hartree energy from (\int eps (grad phi)^2 dr):        5.535961
MG Discrepancy due to finite box and discretization:     -0.000051 (  -0.00093%)
MG Correction to account for finite box:                  0.000039
MG Remaining discrepancy, due to discretization:         -0.000013 (  -0.00023%)
      ideal mu1:      -0.516623266431
             Q0:     -21.069879449477
             G0:      -1.042104096368
   RMS gradient:       0.051443116484
    Initial Ne1:      16.00000000
      Final Ne1:      16.00000000

=================== Penalty functional idempotency correction ==================
 RMS occupancy error at iteration   1:  0.002626 (step -0.4943 Ne1=     16.0000)
 RMS occupancy error at iteration   2:  0.000007 (step -0.5000 Ne1=     16.0000)
            Final RMS occupancy error   :  0.000000 (Ne1=     16.0000)
               Final occupancy bounds   : [  0.0000,  1.0000]
================================================================================

 2    -21.06987944947749 0.02877814206 0.06935138343 0.1000  0.577   16.00000000
MG boundary conditions: total CG'ed q: -0.0000360 over 13785 coarse points
MG Solving with 2nd order solver... done
MG Starting defect correction with a discretization order of: 10
MG Iteration ***   |error|   ***  |defect|  *** |error eq'n residual|  <-- D I
MG         1    0.4026801E-01   0.351228E+00       0.118969536E-04     <-- D I
MG         2    0.6057680E-03   0.407762E-01       0.631896324E-06     <-- D I
MG         3    0.3633699E-04   0.269756E-01       0.417960902E-06     <-- D I
MG         4    0.1930665E-04   0.238053E-01       0.262803392E-06     <-- D I
MG         5    0.1044069E-04   0.228381E-01       0.169205401E-06     <-- D I
MG         6    0.6027613E-05   0.225116E-01       0.110773134E-06     <-- D I
MG Defect correct solution obtained.
MG  - final defect norm:   0.2251E-01
MG  - final error norm :   0.6028E-05
MG  - defect iterations:   6
MG Hartree energy from (\int phi*rho dr):                 5.576030
MG Hartree energy from (\int eps (grad phi)^2 dr):        5.575991
MG Discrepancy due to finite box and discretization:     -0.000040 (  -0.00071%)
MG Correction to account for finite box:                  0.000031
MG Remaining discrepancy, due to discretization:         -0.000009 (  -0.00016%)
      ideal mu1:      -0.536234972831
 3    -21.15163636243860 0.03340497644 0.04712723863 0.0000  0.000   16.00000000
Finished density kernel iterations (   3)

           ........................................................
           | *** NGWF optimisation not converged ***              |
           | RMS NGWF gradient =    0.00431761299507              |
           | Criteria not satisfied:                              |
           | -> RMS NGWF gradient higher than set threshold.      |
           ========================================================

------------------------------- NGWF line search -------------------------------
============ Calculation of NGWF S^-1 using Hotelling algorithm ================ 
         Iteration  |  Frobenius norm and Maximum abs value    (of I-S*S_n^-1)   
               1       0.11589027E-01     0.36145836E-02
               2       0.27116349E-04     0.10216435E-04
               3       0.33465060E-09     0.12177859E-09
               4       0.49240780E-14     0.17763568E-14
================================================================================
MG boundary conditions: total CG'ed q: -0.0000367 over 14030 coarse points
MG Solving with 2nd order solver... done
MG Starting defect correction with a discretization order of: 10
MG Iteration ***   |error|   ***  |defect|  *** |error eq'n residual|  <-- D I
MG         1    0.3943559E-01   0.343255E+00       0.110462920E-04     <-- D I
MG         2    0.5978396E-03   0.368561E-01       0.572105590E-06     <-- D I
MG         3    0.2934157E-04   0.256714E-01       0.368464459E-06     <-- D I
MG         4    0.1577459E-04   0.232143E-01       0.226181976E-06     <-- D I
MG         5    0.8688578E-05   0.224569E-01       0.144608199E-06     <-- D I
MG Defect correct solution obtained.
MG  - final defect norm:   0.2246E-01
MG  - final error norm :   0.8689E-05
MG  - defect iterations:   5
MG Hartree energy from (\int phi*rho dr):                 5.281064
MG Hartree energy from (\int eps (grad phi)^2 dr):        5.281026
MG Discrepancy due to finite box and discretization:     -0.000037 (  -0.00071%)
MG Correction to account for finite box:                  0.000030
MG Remaining discrepancy, due to discretization:         -0.000007 (  -0.00014%)
============ Calculation of NGWF S^-1 using Hotelling algorithm ================ 
         Iteration  |  Frobenius norm and Maximum abs value    (of I-S*S_n^-1)   
               1       0.23045314E+00     0.94350337E-01
               2       0.18333695E-01     0.92613301E-02
               3       0.16058881E-03     0.86780106E-04
               4       0.15367735E-07     0.81769187E-08
               5       0.43387013E-14     0.22204460E-14
================================================================================
RMS gradient                =       0.00431761299507
Trial step length           =               0.122474
Gradient along search dir.  =         -3.21404827212
Functional at step 0        =     -21.15163636243860
Functional at step 1        =     -21.52476188593665
Functional predicted        =     -23.04005646739095
Selected quadratic step     =               1.175104
--------------------------- NGWF line search finished --------------------------
                                               

################################################################################
########################### NGWF CG iteration  002 #############################
################################################################################
****** Reciprocal space K.E. preconditioning with k_zero =  3.0000 a0^-1 *******
   Initial electron number for spin 1:      16.60680884
     Final electron number for spin 1:      16.00000000

=================== Penalty functional idempotency correction ==================
 RMS occupancy error at iteration   1:  0.025253 (step -0.4368 Ne1=     16.0000)
 RMS occupancy error at iteration   2:  0.001570 (step -0.5003 Ne1=     16.0000)
 RMS occupancy error at iteration   3:  0.000010 (step -0.5000 Ne1=     16.0000)
            Final RMS occupancy error   :  0.000000 (Ne1=     16.0000)
               Final occupancy bounds   : [  0.0000,  1.0000]
================================================================================

................................................................................
<<<<<<<<<<<<<< LNV (Original version) density kernel optimisation >>>>>>>>>>>>>>
~~~~~~~~~~~~~~~~~~~~~~~~~~~~~~~~~~~~~~~~~~~~~~~~~~~~~~~~~~~~~~~~~~~~~~~~~~~~~~~~
iter|       energy      |  rms DeltaK |  commutator |LScoef|CGcoef|      Ne    |
MG boundary conditions: total CG'ed q: -0.0000465 over 15612 coarse points
MG Solving with 2nd order solver... done
MG Starting defect correction with a discretization order of: 10
MG Iteration ***   |error|   ***  |defect|  *** |error eq'n residual|  <-- D I
MG         1    0.3196033E-01   0.321930E+00       0.672771668E-05     <-- D I
MG         2    0.5703935E-03   0.261849E-01       0.540109919E-06     <-- D I
MG         3    0.2927410E-04   0.209712E-01       0.103154508E-06     <-- D I
MG         4    0.5442170E-05   0.204054E-01       0.493439582E-07     <-- D I
MG Defect correct solution obtained.
MG  - final defect norm:   0.2041E-01
MG  - final error norm :   0.5442E-05
MG  - defect iterations:   4
MG Hartree energy from (\int phi*rho dr):                 3.044961
MG Hartree energy from (\int eps (grad phi)^2 dr):        3.044933
MG Discrepancy due to finite box and discretization:     -0.000027 (  -0.00090%)
MG Correction to account for finite box:                  0.000026
MG Remaining discrepancy, due to discretization:         -0.000002 (  -0.00006%)
      ideal mu1:      -0.417252930479
             Q0:     -22.879551140198
             G0:      -0.469482808598
   RMS gradient:       0.045679210374
MG boundary conditions: total CG'ed q: -0.0000467 over 16276 coarse points
MG Solving with 2nd order solver... done
MG Starting defect correction with a discretization order of: 10
MG Iteration ***   |error|   ***  |defect|  *** |error eq'n residual|  <-- D I
MG         1    0.3286269E-01   0.323219E+00       0.327600441E-05     <-- D I
MG         2    0.5710978E-03   0.204647E-01       0.324774771E-06     <-- D I
MG         3    0.2703712E-04   0.153270E-01       0.806096783E-07     <-- D I
MG         4    0.4095716E-05   0.149851E-01       0.396299008E-07     <-- D I
MG Defect correct solution obtained.
MG  - final defect norm:   0.1499E-01
MG  - final error norm :   0.4096E-05
MG  - defect iterations:   4
MG Hartree energy from (\int phi*rho dr):                 3.276142
MG Hartree energy from (\int eps (grad phi)^2 dr):        3.276126
MG Discrepancy due to finite box and discretization:     -0.000016 (  -0.00048%)
MG Correction to account for finite box:                  0.000014
MG Remaining discrepancy, due to discretization:         -0.000002 (  -0.00005%)
     Trial step:       0.500000000000
             Q1:     -22.977201243038
 Quadratic coef:       0.137091301460
 Linear coef   :      -0.234741404299
           Qmin:     -22.980038053492
Quadratic minimum step length (  0.428074943121) accepted
    Initial Ne1:      15.99999999
      Final Ne1:      16.00000000

=================== Penalty functional idempotency correction ==================
 RMS occupancy error at iteration   1:  0.008344 (step -0.4781 Ne1=     16.0000)
 RMS occupancy error at iteration   2:  0.000128 (step -0.4999 Ne1=     16.0000)
            Final RMS occupancy error   :  0.000000 (Ne1=     16.0000)
               Final occupancy bounds   : [  0.0000,  1.0000]
================================================================================

 1    -22.87955114019843 0.00000000000 0.05318599424 0.4281  0.000   16.00000000
MG boundary conditions: total CG'ed q: -0.0000465 over 16175 coarse points
MG Solving with 2nd order solver... done
MG Starting defect correction with a discretization order of: 10
MG Iteration ***   |error|   ***  |defect|  *** |error eq'n residual|  <-- D I
MG         1    0.3273086E-01   0.322921E+00       0.324775815E-05     <-- D I
MG         2    0.5699669E-03   0.212506E-01       0.311484284E-06     <-- D I
MG         3    0.2681913E-04   0.161713E-01       0.758982250E-07     <-- D I
MG         4    0.3788633E-05   0.158055E-01       0.361377557E-07     <-- D I
MG Defect correct solution obtained.
MG  - final defect norm:   0.1581E-01
MG  - final error norm :   0.3789E-05
MG  - defect iterations:   4
MG Hartree energy from (\int phi*rho dr):                 3.236873
MG Hartree energy from (\int eps (grad phi)^2 dr):        3.236856
MG Discrepancy due to finite box and discretization:     -0.000017 (  -0.00053%)
MG Correction to account for finite box:                  0.000016
MG Remaining discrepancy, due to discretization:         -0.000002 (  -0.00005%)
      ideal mu1:      -0.470226930978
             Q0:     -22.983868402883
             G0:      -0.097366323057
   RMS gradient:       0.020451069484
MG boundary conditions: total CG'ed q: -0.0000465 over 16461 coarse points
MG Solving with 2nd order solver... done
MG Starting defect correction with a discretization order of: 10
MG Iteration ***   |error|   ***  |defect|  *** |error eq'n residual|  <-- D I
MG         1    0.3290195E-01   0.321707E+00       0.344120236E-05     <-- D I
MG         2    0.5686219E-03   0.197188E-01       0.341079687E-06     <-- D I
MG         3    0.2717254E-04   0.143961E-01       0.973092529E-07     <-- D I
MG         4    0.4526737E-05   0.140365E-01       0.464932384E-07     <-- D I
MG Defect correct solution obtained.
MG  - final defect norm:   0.1404E-01
MG  - final error norm :   0.4527E-05
MG  - defect iterations:   4
MG Hartree energy from (\int phi*rho dr):                 3.320989
MG Hartree energy from (\int eps (grad phi)^2 dr):        3.320975
MG Discrepancy due to finite box and discretization:     -0.000014 (  -0.00041%)
MG Correction to account for finite box:                  0.000012
MG Remaining discrepancy, due to discretization:         -0.000002 (  -0.00005%)
     Trial step:       0.462641839397
             Q1:     -23.007597130746
 Quadratic coef:       0.021317006932
 Linear coef   :      -0.045045734794
           Qmin:     -23.007665343861
Quadratic minimum step length (  0.488812563338) accepted
    Initial Ne1:      15.99999739
      Final Ne1:      16.00000000

=================== Penalty functional idempotency correction ==================
 RMS occupancy error at iteration   1:  0.005915 (step -0.4850 Ne1=     16.0000)
 RMS occupancy error at iteration   2:  0.000071 (step -0.5000 Ne1=     16.0000)
            Final RMS occupancy error   :  0.000000 (Ne1=     16.0000)
               Final occupancy bounds   : [  0.0000,  1.0000]
================================================================================

 2    -22.98386840288325 0.08892532123 0.01887236690 0.4888  0.200   16.00000000
MG boundary conditions: total CG'ed q: -0.0000465 over 16471 coarse points
MG Solving with 2nd order solver... done
MG Starting defect correction with a discretization order of: 10
MG Iteration ***   |error|   ***  |defect|  *** |error eq'n residual|  <-- D I
MG         1    0.3291296E-01   0.321680E+00       0.345293467E-05     <-- D I
MG         2    0.5686257E-03   0.196382E-01       0.342395512E-06     <-- D I
MG         3    0.2719526E-04   0.142933E-01       0.989385508E-07     <-- D I
MG         4    0.4566386E-05   0.139331E-01       0.472925443E-07     <-- D I
MG Defect correct solution obtained.
MG  - final defect norm:   0.1393E-01
MG  - final error norm :   0.4566E-05
MG  - defect iterations:   4
MG Hartree energy from (\int phi*rho dr):                 3.326018
MG Hartree energy from (\int eps (grad phi)^2 dr):        3.326005
MG Discrepancy due to finite box and discretization:     -0.000013 (  -0.00041%)
MG Correction to account for finite box:                  0.000012
MG Remaining discrepancy, due to discretization:         -0.000002 (  -0.00005%)
      ideal mu1:      -0.489028526338
 3    -23.00916084045257 0.03483270084 0.00830097193 0.0000  0.000   16.00000000
Finished density kernel iterations (   3)

           ........................................................
           | *** NGWF optimisation not converged ***              |
           | RMS NGWF gradient =    0.00162508229738              |
           | Criteria not satisfied:                              |
           | -> RMS NGWF gradient higher than set threshold.      |
           ========================================================
MG boundary conditions: total CG'ed q: -0.0000465 over 16471 coarse points
MG Solving with 2nd order solver... done
MG Starting defect correction with a discretization order of: 10
MG Iteration ***   |error|   ***  |defect|  *** |error eq'n residual|  <-- D I
MG         1    0.3291296E-01   0.321680E+00       0.345293467E-05     <-- D I
MG         2    0.5686257E-03   0.196382E-01       0.342395512E-06     <-- D I
MG         3    0.2719526E-04   0.142933E-01       0.989385508E-07     <-- D I
MG         4    0.4566386E-05   0.139331E-01       0.472925443E-07     <-- D I
MG Defect correct solution obtained.
MG  - final defect norm:   0.1393E-01
MG  - final error norm :   0.4566E-05
MG  - defect iterations:   4
MG Hartree energy from (\int phi*rho dr):                 3.326018
MG Hartree energy from (\int eps (grad phi)^2 dr):        3.326005
MG Discrepancy due to finite box and discretization:     -0.000013 (  -0.00041%)
MG Correction to account for finite box:                  0.000012
MG Remaining discrepancy, due to discretization:         -0.000002 (  -0.00005%)

================================================================================
           ---------------- ENERGY COMPONENTS (Eh) ----------------
           | Kinetic                    :       15.91533065815993 |
           | Pseudo. (local,OBC,corr'd):        -8.79008370977145 |
           | Pseudopotential (non-local):        3.21705425882400 |
           | Hartree (molecular)        :        3.32601843371668 |
           | Exchange-correlation       :       -6.87929201734644 |
           | Ion-ion (open BC)          :       31.19388932693186 |
           | Smeared ion non-self corr. :      -31.07732875617827 |
           | Smeared ion self corr.     :      -29.92067103010746 |
           | Solvent cavitation energy  :        0.00592199531859 |
           | Total                      :      -23.00916084045257 |
           --------------------------------------------------------
           ------ LOCAL ENERGY COMPONENTS FROM MATRIX TRACES ------
           | Pseudopotential (local)    :       -8.79008370977158 |
           | Hartree                    :       -4.62072233302584 |
           --------------------------------------------------------
           Integrated density           :       15.99999999999481
           Integrated density tr(KS)    :       16.00000000000000
================================================================================


------------------------------- NGWF line search -------------------------------
============ Calculation of NGWF S^-1 using Hotelling algorithm ================ 
         Iteration  |  Frobenius norm and Maximum abs value    (of I-S*S_n^-1)   
               1       0.38934080E-01     0.13119685E-01
               2       0.42063858E-03     0.15237343E-03
               3       0.81551658E-07     0.30651601E-07
               4       0.52195773E-14     0.17763568E-14
================================================================================
MG boundary conditions: total CG'ed q: -0.0000489 over 17348 coarse points
MG Solving with 2nd order solver... done
MG Starting defect correction with a discretization order of: 10
MG Iteration ***   |error|   ***  |defect|  *** |error eq'n residual|  <-- D I
MG         1    0.3274915E-01   0.319674E+00       0.642295954E-05     <-- D I
MG         2    0.5741907E-03   0.191618E-01       0.366989215E-06     <-- D I
MG         3    0.2792480E-04   0.139789E-01       0.568600890E-07     <-- D I
MG         4    0.3784703E-05   0.137438E-01       0.391140612E-07     <-- D I
MG Defect correct solution obtained.
MG  - final defect norm:   0.1374E-01
MG  - final error norm :   0.3785E-05
MG  - defect iterations:   4
MG Hartree energy from (\int phi*rho dr):                 3.275179
MG Hartree energy from (\int eps (grad phi)^2 dr):        3.275165
MG Discrepancy due to finite box and discretization:     -0.000013 (  -0.00040%)
MG Correction to account for finite box:                  0.000012
MG Remaining discrepancy, due to discretization:         -0.000001 (  -0.00004%)
============ Calculation of NGWF S^-1 using Hotelling algorithm ================ 
         Iteration  |  Frobenius norm and Maximum abs value    (of I-S*S_n^-1)   
               1       0.46076086E-01     0.13032917E-01
               2       0.76081789E-03     0.24967238E-03
               3       0.26838531E-06     0.92207910E-07
               4       0.38077187E-13     0.12878587E-13
================================================================================
RMS gradient                =       0.00162508229738
Trial step length           =               0.379368
Gradient along search dir.  =         -0.45531891221
Functional at step 0        =     -23.00916084045257
Functional at step 1        =     -23.13925590542578
Functional predicted        =     -23.18410192619966
Selected quadratic step     =               0.768433
--------------------------- NGWF line search finished --------------------------
                                               
WARNING: maximum number of NGWF CG iterations (   2) exceeded!

                    <<<<< CALCULATION SUMMARY >>>>>
|ITER|    RMS GRADIENT   |     TOTAL ENERGY    |   step   |     Epredicted      
   1     0.00431761299507    -21.15163636243860   1.175104    -23.04005646739095
   2     0.00162508229738    -23.00916084045257  <-- CG                         
 
<QC>        [NGWF iterations]:        2
<QC>           [total_energy]:      -23.00916084
<QC>                     [F0]:      -23.00916084
<QC>                     [F1]:      -23.13925591
<QC>                     [F2]:        0.00000000
<QC>   [predicted_functional]:      -23.18410193
<QC>           [rms_gradient]:        0.001625082297
<QC>                 [G_init]:       -0.455318912208
<QC>        [quadratic_coeff]:        0.768433
<QC>            [cubic_coeff]:        0.000000
<QC>               [cg_coeff]:        0.000000
<QC>           [trial_length]:        0.379368

------------------------------ TIMING INFORMATION ------------------------------
TOTAL TIME:     603.126s on     4 node(s)

Job completed: 28-05-2011 02:10 (+0100)

