Defaulting to ethernet
No MPI process pinning
Starting MPD ring...
PBS has allocated the following nodes:
cx1-8-5-1
cx1-8-5-1
cx1-8-5-1
cx1-8-5-1
---
mpiexec.intel -genv I_MPI_DEVICE ssm -genv I_MPI_DEBUG 0 -genv I_MPI_PIN no -genv I_MPI_PIN_MODE none -genv I_MPI_FALLBACK_DEVICE disable -genv DAPL_MAX_CM_RETRIES 500 -genv DAPL_MAX_CM_RESPONSE_TIME 300 -genv I_MPI_DAPL_CONNECTION_TIMEOUT 300 -machinefile /tmp/pbs.5705177.cx1/tmp.PKgmZ25564 -n 4 -wdir /home/nhine/ONETEP/devel/tests/test18 /home/nhine/ONETEP/devel/bin/onetep.cx1 h_bond_spd_coarse

Job output begins below
-----------------------
 +---------------------------------------------------------------+
 |                                                               |
 |        ####### #     # ####### ####### ####### ######         |
 |        #     # ##    # #          #    #       #     #        |
 |        #     # # #   # #          #    #       #     #        |
 |        #     # #  #  # #####      #    #####   ######         |
 |        #     # #   # # #          #    #       #              |
 |        #     # #    ## #          #    #       #              |
 |        ####### #     # #######    #    ####### #              |
 |                                                               |
 |        Linear-Scaling Ab Initio Total Energy Program          |
 |                                                               |
 |          Release for academic collaborators of ODG            |
 |                                              Version 3.0      |
 |                                                               |
 +---------------------------------------------------------------+
 |                                                               |
 |  Authors:                                                     |
 |  Peter D. Haynes, Nicholas D. M. Hine, Arash. A. Mostofi,     |
 |  Mike C. Payne and Chris-Kriton Skylaris                      |
 |                                                               |
 |  Contributors:                                                |
 |  P. W. Avraam, S. J. Clark, O. Dieguez, S. M. M. Dubois,      |
 |  J. Dziedzic, H. H. Helal, Q. O. Hill, D. D. O`Regan,         |
 |  C. J. Pickard, M. I. J. Probert, L. Ratcliff, M. Robinson    |
 |  and A. Ruiz Serrano                                          |
 |                                                               |
 |                                   Copyright (c) 2004-2011     |
 |                                                               |
 |  Please cite:                                                 |
 |  "Introducing ONETEP: Linear-scaling density functional       |
 |   simulations on parallel computers".                         |
 |   C.-K. Skylaris, P. D. Haynes, A. A. Mostofi, M. C. Payne.   |
 |   J. Chem. Phys. 122 084119 (2005).                           |
 |                                                               |
 |          in all publications arising from your use of ONETEP. |
 |                                                               |
 +---------------------------------------------------------------+
 |                                                               |
 |   ONETEP is based on developments described in the following  |
 |   publications:                                               |
 |                                                               |
 |  "Nonorthogonal generalized Wannier function pseudopotential  |
 |   plane-wave method".                                         |
 |   C.-K. Skylaris, A. A. Mostofi, P. D. Haynes, O. Dieguez,    |
 |   M. C. Payne.                                                |
 |   Phys. Rev. B 66 035119 (2002).                              |
 |                                                               |
 |  "Preconditioned iterative minimization for linear-scaling    |
 |   electronic structure calculations".                         |
 |   A. A. Mostofi, P. D. Haynes, C.-K. Skylaris, M. C. Payne.   |
 |   J. Chem. Phys. 119(17), pp.8842-8848 (2003).                |
 |                                                               |
 |  "Total-energy calculations on a real space grid with         |
 |   localized functions and a plane-wave basis".                |
 |   A. A. Mostofi, C.-K. Skylaris, P. D. Haynes, M. C. Payne.   |
 |   Comput. Phys. Commun. 147, pp.788-802 (2002).               |
 |                                                               |
 |  "Accurate kinetic energy evaluation in electronic structure  |
 |   calculations with localized functions on real space grids"  |
 |   C.-K. Skylaris, A. A. Mostofi, P. D. Haynes, C. J. Pickard, |
 |   M. C. Payne.                                                |
 |   Comput. Phys. Commun. 140, pp.315-322 (2001).               |
 |                                                               |
 +---------------------------------------------------------------+

Job started: 28-05-2011 01:42 (+0100)

Running on     4 processors.

Reading parameters from file "h_bond_spd_coarse.dat" ...... done
Reading geometry and species blocks from file "h_bond_spd_coarse.dat" ...    
  PSINC grid spacing along a1 set to   0.500000000000a0 from input file.
  Number of PPD points along a1 set to 6 from input file.
  PSINC grid spacing along a2 set to   0.500000000000a0 from input file.
  Number of PPD points along a2 set to 3 from input file.
  PSINC grid spacing along a3 set to   0.500000000000a0 from input file.
  Number of PPD points along a3 set to 1 from input file.
... done
-------------------------------------------------------------------------------
---------------------------- RUN-TIME PARAMETERS ------------------------------
-------------------------------------------------------------------------------
task                       : SINGLEPOINT *! Type of calculation (String)        
cutoffenergy               : 20.0000000000000      hartree *! Plane wave kineti 
kernelcutoff               : 1000.00000000000 *! Density kernel radius in Bohr  
xcfunctional               : LDA *! Exchange-correlation functional (String)    
libxcxfuncid               : 0 *! Functional identifier for which exchange func 
libxccfuncid               : 0 *! Functional identifier for which correlation f 
charge                     : 0.000000000000000E+000 *! The total charge of the  
spin                       : 0 *! Total spin of system (Integer)                
spinpolarized              : F *! Switch for spin polarization (Boolean)        
spinpolarised              : F *! Switch for spin polarisation (Boolean)        
constantefield             : 0.0 0.0 0.0 *! Cartesian coordinates of constant e 
fftboxpref                 : 0 0 0 *! Preferred FFT box dimensions (String)     
ppdnpoints                 : 6  3  1 *! PPD edge length in grid points for each 
psincspacing               : 0.5  0.5  0.5 *! PSINC grid spacing in atomic unit 
oldinput                   : F *! Read old-format input file (Boolean)          
develcode                  : *! For development code only (String)              
nnho                       : F *! Initialise NGWFs to nonorthogonal natural hyb 
ngwfhalo                   : -1.00000000000000 *! Halo extension to NGWF radii  
nonscforces                : F *! Include non self-consistent forces due to NGW 
maxitpalsermano            : 50 *! Maximum number of iterations for Palser-Mano 
maxitpen                   : 3 *! Max number of penalty functional iterations ( 
penparam                   : 4.00000000000000 *! Penalty functional parameter ( 
minitlnv                   : 3 *! Min number of LNV iterations (Integer)        
maxitlnv                   : 8 *! Max number of LNV iterations (Integer)        
maxitlnvcoarse             : 0 *! Max number of low-accuracy LNV iterations (In 
lnvthresholdorig           : 1.000000000000000E-009 *! LNV convergence threshol 
lnvcgtype                  : LNV_FLETCHER *! Type of CG coefficient for LNV den 
lnvcgmaxstep               : 3.00000000000000 *! Maximum length of trial step f 
exactlnv                   : T *! Use original LNV algorithm (Boolean)          
oldlnv                     : F *! Use LNV algorithm backwards compatible pre De 
lnvchecktrialsteps         : F *! Check stability of kernel at each trial step  
kerfix                     : 1 *! Density kernel fixing approach (Integer)      
maxitkernelfix             : 3 *! Maximum # iterations of Penalty Functional id 
initialdensrealspace       : F *! Construct initial density in real space from  
kerneldiis                 : F *! Use kernel DIIS in the inner loop (Boolean)   
kerneldiistype             : P *! Density mixing method (String)                
kerneldiismax              : 10 *! Max number of kernels saved during kernel DI 
kerneldiismaxit            : 25 *! Max number of kernel DIIS iterations (Intege 
kerneldiisthres            : 1.000000000000000E-009 *! Density mixing convergen 
kerneldiisliter            : 5 *! Number of linear mixing iterations (Integer)  
kerneldiiscin              : 0.900000000000000 *! Coefficient for the input ker 
kerneldiiscriteria         : 1000 *! Density mixing convergence criteria (Strin 
maxitngwfcg                : 60 *! Max number of NGWF conjugate gradients (CG)  
ngwfcgtype                 : NGWF_FLETCHER *! Type of CG coefficient for NGWF o 
ngwfcgmaxstep              : -8.00000000000000 *! Maximum length of trial step  
eleccgmax                  : 5 *! Number of NGWF iterations to reset CG (Intege 
precondscheme              : TETER *! Recip-space preconditioning scheme (Strin 
kzero                      : 3.00000000000000 *! KE preconditioning parameter ( 
rprecond                   : 2.00000000000000 *! Radial cut-off for real-space  
precondrecip               : T *! Recip-space KE preconditioning (Boolean)      
precondreal                : F *! Real-space KE preconditioning (Boolean)       
smoothscheme               : NONE *! Smoothing scheme for the NGWF gradients at 
rsmooth                    : 1.50000000000000      bohr *! Radius of the unshav 
ksmooth                    : 5.00000000000000 *! Characteristic wavelength of t 
occmix                     : 0.250000000000000 *! Mix fraction of occupancy pre 
kernelupdate               : F *! Update density kernel during NGWF line search 
kernelchristoffelupdate    : F *! Update density kernel during NGWF line search 
maxithotelling             : 50 *! Number of Hotelling iteration per NGWF chang 
maxresidhotelling          : 1.000000000000000E-012 *! Max allowed value in Hot 
maxitngwfdiis              : 0 *! Max number of NGWF DIIS steps (Integer)       
ngwfdiissize               : 4 *! Max size of the DIIS iterative subspace (Inte 
ngwfdiisreset              : 8 *! Max number of iteration for the resetting of  
ngwfdiismaxstep            : 2.00000000000000 *! Max length of trial step for N 
ngwfthresholdorig          : 2.000000000000000E-006 *! NGWF convergence thresho 
elecenergytol              : -1.000000000000000E-003 hartree *! Tolerance on to 
elecforcetol               : -1.000000000000000E-003 ha/bohr *! Tolerance on ma 
ngwfmaxgrad                : -2.000000000000000E-005 *! Maximum permissible val 
deltaeconv                 : T *! Use consecutive energy gains as a criterion f 
locpotintbatchsize         : 10 *! Size of NGWF in fftbox batch for locpot inte 
kineticintbatchsize        : 10 *! Size of NGWF in fftbox batch for kinetic int 
densitybatchsize           : 10 *! Size of NGWF in fftbox batch for charge dens 
ngwfgradbatchsize          : 10 *! Size of NGWF in fftbox batch for NGWF gradie 
densethreshold             : 0.400000000000000 *! Threshold for matrix segment  
commsgroupsize             : 4 *! Number of nodes in a group (determines comms  
ovlpfornonlocal            : F *! Overlap sparsity for nonlocal (Boolean)       
usespacefillingcurve       : T *! Re-arrange atoms according to space-filling c 
corehamdenskernguess       : T *! Initial guess for density kernel from core Ha 
checkatoms                 : T *! Check atoms on top of each other (Boolean)    
locpotscheme               : FULL *! Scheme for evaluating local potential matr 
smoothprojectors           : -0.400000000000000 *! Halfwidth of Gaussian filter 
smoothlocpspot             : -0.400000000000000 *! Halfwidth of Gaussian filter 
oddpsincgrid               : F *! Force odd number of points in simcell psinc g 
evenpsincgrid              : F *! Force even number of points in simcell psinc  
realspaceprojectors        : F *! Whether to evaluate and store projectors in r 
outputdetail               : VERBOSE *! Level of output detail (String)         
pawoutputdetail            : DEFAULT *! Level of output detail for PAW: BRIEF,  
timingslevel               : 0 *! Level of timings output: 0(none) 1(nodes summ 
writeparams                : T *! Output runtime parameters at startup (Boolean 
writeforces                : F *! Write ionic forces (Boolean)                  
writepositions             : T *! Write ionic positions each geometry or MD ste 
writexyz                   : F *! Output coordinates in .xyz file (Boolean)     
printqc                    : T *! Print Quality Control information (Boolean)   
cubeformat                 : F *! Allow .cube format for plot outputs (Boolean) 
dxformat                   : F *! Allow .dx format for plot outputs (Boolean)   
dxformatcoarse             : F *! Output only points on the coarse grid (Boolea 
dxformatdigits             : 7 *! Number of significant digits in .dx output (I 
grdformat                  : T *! Allow .grd format for plot outputs (Boolean)  
writedensityplot           : T *! Write the charge density in plotting format ( 
writengwfplot              : F *! Write NGWFs in plotting format (Boolean)      
writengwfgradplot          : F *! Write NGWF Gradients in plotting format (Bool 
writengwfradial            : F *! Write NGWFs radial distributions (Boolean)    
writengwfgradradial        : F *! Write NGWFs gradients radial distributions (B 
writeradialstep            : 5.000000000000000E-003 bohr *! Define the grid ste 
writeradialsmear           : 1.000000000000000E-002 bohr *! Define the gaussian 
readdenskern               : F *! Read density kernel restart information (Bool 
writedenskern              : F *! Write density kernel restart information (Boo 
readtightboxngwfs          : F *! Read in universal tightbox NGWFs restart info 
writetightboxngwfs         : F *! Write in universal tightbox NGWFs restart inf 
writeconvergeddkngwfs      : F *! Only write Density Kernel and NGWFs upon conv 
readswngwfs                : F *! Read NGWFs restart information in spherical w 
writeswngwfs               : F *! Write NGWFs restart information in spherical  
writemaxl                  : 3 *! Maximum angular momentum number when writing  
readmaxl                   : 3 *! Maximum angular momentum number when reading  
extransw                   : 0 *! Maximum number of zeros of the sph Bessel fun 
paw                        : F *! Uses a PAW construction to find correct core  
finegridscale              : 1.00000000000000 *! Ratio of size of fine grid to  
dblgridscale               : 1.00000000000000 *! Ratio of charge density / pote 
augfuncsrecip              : T *! Construct Augmentation functions in recip spa 
dispersion                 : 0 *! Select dispersion correction (Integer)        
vdwdcoeff                  : -1.00000000000000 *! Replacement VDW damping coeff 
hubbardmaxiter             : 0 *! Maximum number of DFT+U projector optimisatio 
hubbardenergytol           : 1.000000000000000E-008 hartree *! Energy tolerance 
hubbardconvwin             : 2 *! Energy convergence window when using DFT+U pr 
hubbardprojmixing          : 0.000000000000000E+000 *! Proportion of old Hubbar 
hubbardfunctional          : 1 *! DFT+U energy functional to use (Integer)      
hubbardtensorcorr          : 1 *! DFT+U projector tensorial correction to use ( 
hubbardngwfspinthreshold   : 2.000000000000000E-005 *! NGWF RMS  gradient thres 
coulombcutoffradius        : 0.000000000000000E+000 *! Radius of sphere or cyli 
coulombcutofflength        : 0.000000000000000E+000 *! Length of cylinder or wi 
coulombcutofftype          : NONE *! Type of cutoff coulomb interaction: NONE,  
coulombcutoffwriteint      : F *! Write real-space cutoff Coulomb interaction s 
pbccorrectioncutoff        : 0.000000000000000E+000 *! alpha*L cutoff parameter 
doproperties               : F *! Allow calculation of properties (Boolean)     
numeigenvalues             : 10 *! Number of energy and occupancy eigenvalues t 
homodensplot               : -1 *! Number of squared MOs to plot from HOMO and  
lumodensplot               : -1 *! Number of squared MOs to plot from LUMO and  
homoplot                   : 5 *! Number of MOs to plot from HOMO and lower (In 
lumoplot                   : 5 *! Number of MOs to plot from LUMO and higher (I 
dossmear                   : 3.674932438755288E-003 hartree *! Half width of sm 
ldossmear                  : 3.674932438755288E-003 hartree *! Lorentzian broad 
popncalculate              : F *! Allow population analysis (Boolean)           
popnbondcutoff             : 5.66917840375065      bohr *! Bond length cutoff f 
ngwfanalysis               : F *! Perform NGWF analysis (Boolean)               
polarisationcalculate      : F *! Allow calculation of polarisation (Boolean)   
spreadcalculate            : F *! Calculate spread of NGWFs (Boolean)           
geommodulusest             : 1.700000000000000E-002 ha/bohr**3 *! The estimated 
geomfrequencyest           : 7.600000000000000E-003 hartree *! The estimated av 
geomenergytol              : 1.000000000000000E-006 hartree *! Geometry optimiz 
geomforcetol               : 2.000000000000000E-003 ha/bohr *! Geometry optimiz 
geomdisptol                : 5.000000000000000E-003 bohr *! Geometry optimizati 
geommaxiter                : 50 *! Maximum number of geometry optimization iter 
geomconvergencewin         : 2 *! Geometry optimization convergence tolerance w 
geomcontinuation           : F *! Read information for continuation of a previo 
geombackupiter             : 1 *! Number of geometry optimisation iterations be 
geomresetdkngwfsiter       : 6 *! Number of geom iterations between resets of k 
geomreusedkngwfs           : T *! Re-use density kernel and NGWFs during geomet 
geomprintinvhessian        : F *! Write inverse Hessian to standard output (Boo 
geommethod                 : CARTESIAN *! Method for geometry optimization (Str 
tssearchmethod             : LSTQST *! Specifies method to be used for TS searc 
tssearchlstqstprotocol     : LSTMAXIMUM *! Specifies LSTQST protocol (String)   
tssearchqstmaxiter         : 5 *! Specifies maximum number of QST steps (Intege 
tssearchcgmaxiter          : 20 *! Specifies maximum number of CG steps (Intege 
tssearchforcetol           : 5.000000000000000E-003 ha/bohr *! Force tolerance  
tssearchdisptol            : 1.000000000000000E-002 bohr *! Displacement tolera 
mddeltat                   : 40.0000000000000      aut *! Molecular dynamics ti 
mdnumiter                  : 100 *! Maximum number of molecular dynamics iterat 
mdtemperature              : 9.500000000000000E-004 hartree *! Temperature for  
mdalgorithm                : LEAPFROGVERLET *! Integration algorithm for molecu 
mdthermostat               : NONE *! Thermostat for molecular dynamics (String) 
mdcollisionfrequency       : 0.152000000000000      hartree *! Collision freque 
mixdenskern                : 0 *! Number of coefficients used to build new gues 
mixngwfs                   : 0 *! Number of coefficients used to build new gues 
condreaddenskern           : F *! Read in conduction density kernel (Boolean)   
condreadtightboxngwfs      : F *! Read in universal tightbox conduction NGWFs ( 
condfixedshift             : F *! Fixed projected conduction Hamiltonian shift  
condcalcmaxeigen           : T *! Calculate maximum conduction Hamiltonian eige 
condnumstates              : 0 *! Number of conduction states to be optimised f 
condkernelcutoff           : 1000.00000000000 *! Conduction density kernel radi 
condinitshift              : 0.000000000000000E+000 *! Initial shifting factor  
condshiftbuffer            : 0.100000000000000 *! Additional buffer for updatin 
condnumextrastates         : 0 *! Number of extra conduction states for initial 
condnumextraits            : 0 *! Number of NGWF iterations with extra conducti 
condplotjointorbitals      : T *! Plot orbitals in the joint basis following a  
condplotvcorbitals         : T *! Plot orbitals in the val and cond NGWF basis  
condcalcopticalspectra     : F *! Calculate matrix elements for optical absorpt 
condspeccalcmommatels      : T *! Calculate momentum matrix elements (default t 
condspeccalcnonloccomm     : T *! Calculate nonlocal commutator for momentum ma 
condspeccontderiv          : T *! Calculate non-local commuator using continuou 
condspecnonloccommshift    : 1.000000000000000E-004 *! Finite difference shift  
bskpointpathspacing        : 0.188972700000000      1/bohr *! K-point spacing a 
bsnumeigenvalues           : -1 *! Num of energy and occ. eigenvalues to print  
bsunfold                   : 0 0 0 *! Number of times to unfold Brillouin zone  
bsmethod                   : TB *! Method to use: 'KP' or 'TB' (String)         
dotddft                    : F *! Allow Time-Dependent DFT calculation (Boolean 
tddftmaximumenergy         : 1.00000000000000      hartree *! Desired maximum o 
tddftresolution            : 1.000000000000000E-003 hartree *! Desired resoluti 
tddftpropagationmethod     : CRANKNICHOLSON *! Method used to integrate von Neu 
tddftsparsitylevel         : 0 *! Matrix sparsity when computing propagators e. 
tddfttammdancoff           : F *! Invoke Tamm-Dancoff decoupling approximation  
tddftdipolekickstrength    : 0.0 0.0 0.0 *! Maximum allowed phase shift in TDDF 
tddftxcfunctional          : LDA *! Exchange-correlation functional for TDDFT ( 
tddfthamiltonianmixing     : 0 *! Order of polynomial extrapolation to H(t + ha 
tddftdamping               : 0.000000000000000E+000 hartree *! Energy smearing  
tddftenforcedidempotency   : F *! Project out at each timestep that part of cha 
tddftmaxithotelling        : 50 *! Number of Hotelling iteration per propagatio 
tddftmaxresidhotelling     : 1.000000000000000E-018 *! Max allowed value in Hot 
tddftinvoverlapexact       : T *! Renew inverse overlap with O N^3 algorithm be 
isimplicitsolvent          : F *! Use implicit solvent? (Boolean)               
issmearedionrep            : F *! Implicit solvent: use smeared ions for electr 
isincludecavitation        : F *! Implicit solvent: include cavitation energy ( 
isdensitythreshold         : 7.800000000000000E-004 *! Implicit solvent: rho_0  
issolvationbeta            : 1.30000000000000 *! Implicit solvent: beta paramet 
isbulkpermittivity         : 1.00000000000000 *! Implicit solvent: eps_inf para 
ismultigriddefecterrortol  : 1.000000000000000E-002 *! Implicit solvent: stop c 
ismultigriderrortol        : 1.000000000000000E-005 *! Implicit solvent: stop c 
issmearedionwidth          : 0.800000000000000 *! Implicit solvent: Width of Ga 
issurfacethickness         : 2.000000000000000E-004 *! Implicit solvent: thickn 
issolventsurfacetension    : 4.762400000000000E-005 ha/bohr**2 *! Implicit solv 
ismultigridmaxiters        : 100 *! Implicit solvent: max number of iterations  
ismultigridnlevels         : 4 *! Implicit solvent: number of levels in multigr 
isdiscretizationorder      : 8 *! Implicit solvent: discretization order (2nd,  
isbccoarseness             : 5 *! Implicit solvent: controls boundary condition 
isbcsurfacecoarseness      : 1 *! Implicit solvent: controls boundary condition 
ischecksolvenergygrad      : F *! Implicit solvent: sanity check the energy gra 
issolvationmethod          : DIRECT *! Implicit solvent: direct or corrective m 
isdielectricmodel          : FIX_INITIAL *! Implicit solvent: how the cavity is 
isdielectricfunction       : FGF *! Implicit solvent: how the cavity is determi 
issolvationoutputdetail    : NONE *! Implicit solvent: controls extra output (S 
openbcionion               : F *! Force open BCs in ion-ion energy (Boolean)    
openbchartree              : F *! Force open BCs in Hartree potential (Boolean) 
openbcpspot                : F *! Force open BCs in local pseudopotential (Bool 
openbcpspotfinetunenptsx   : 100000 *! Open BCs in local pseudo, npts_x paramet 
openbcpspotfinetunealpha   : 0.300000000000000 *! Open BCs in local pseudo, alp 
openbcpspotfinetunef       : -1 *! Open BCs in local pseudo, fineness parameter 
%block positionsabs        : *! Cartesian positions for each atom (Block)       
O     24.887507   23.896975   22.647313                                         
C     27.731659   23.667449   22.643306                                         
H     28.655157   21.721170   22.637547                                         
H     28.955467   25.440371   22.646039                                         
O     19.766101   21.820471   22.648599                                         
H     17.687651   22.103070   22.651801                                         
H     20.725313   23.685785   22.651874                                         
%endblock positionsabs     : *! Cartesian positions for each atom (Block)       
%block latticecart         : *! The simulation cell lattice vectors (Block)     
51.00     0.00     0.00                                                         
0.00    51.00     0.00                                                          
0.00     0.00    51.00                                                          
%endblock latticecart      : *! The simulation cell lattice vectors (Block)     
%block species             : *! Species information (symbol, atomic number, num 
O    O    8    4    6.3                                                         
C    C    6    4    6.3                                                         
H    H    1    1    6.0                                                         
%endblock species          : *! Species information (symbol, atomic number, num 
%block speciespot          : *! Pseudopotential name for each species (Block)   
O    "../../pseudo/oxygen_spd.recpot"                                           
C    "../../pseudo/carbon_spd.recpot"                                           
H    "../../pseudo/hydrogen_coul.recpot"                                        
%endblock speciespot       : *! Pseudopotential name for each species (Block)   
%block speciesatomicset    : *! Atomic set name for each species (Block)        
O    "../../fireballs/O_SZ_6.0_recpot01_600eV.fbl"                              
C    "../../fireballs/C_SZ_6.0_recpot00_600eV.fbl"                              
H    "../../fireballs/H_SZ_6.0_recpot00_600eV.fbl"                              
%endblock speciesatomicset : *! Atomic set name for each species (Block)        
-------------------------------------------------------------------------------
-------------------------------------------------------------------------------

<<<<<<<<<<<<<<<<<<<<<<<<< Pseudopotential information >>>>>>>>>>>>>>>>>>>>>>>>>
File: ../../pseudo/oxygen_spd.recpot [ 2001 points up to Gmax=  52.9 (1/bohr)]
  Atomic number:  8;  ionic charge:  6.000000
    Shell 1: l = 0; rc = 1.01 bohr
    Shell 2: l = 1; rc = 1.60 bohr
    Shell 3: l = 2; rc = 1.60 bohr
File: ../../pseudo/carbon_spd.recpot [ 2001 points up to Gmax=  52.9 (1/bohr)]
  Atomic number:  6;  ionic charge:  4.000000
    Shell 1: l = 0; rc = 1.25 bohr
    Shell 2: l = 1; rc = 1.48 bohr
    Shell 3: l = 2; rc = 1.54 bohr
File: ../../pseudo/hydrogen_coul.recpot [ 2001 points up to Gmax=  52.9 (1/bohr)]
  Atomic number:  1;  ionic charge:  1.000000
    Local potential
<<<<<<<<<<<<<<<<<<<<<<<<<<<<<<<<<<<<<<< >>>>>>>>>>>>>>>>>>>>>>>>>>>>>>>>>>>>>>>

------------------------- Atom counting information ---------------------------
Symbol    Natoms    Nngwfs    Nprojs
  O          2         8        18
  C          1         4         9
  H          4         4         0
.......   ......    ......    ......
Totals:      7        16        27
-------------------------------------------------------------------------------
 
Determining parallel strategy ...
... using space-filling curve
... NGWF load balancing: max      5;  min      1;  average      4
... Projector load balancing: max      9;  min      0;  average      7
... done

Calculating Ewald energy ...
              Ewald: real-space energy =      27.419782
        Ewald: reciprocal-space energy =       1.617082
         Ewald: (sum_charge)**2 Energy =       2.050031
         Ewald: (sum_charge**2) Energy =       2.494981
                          Ewald Energy =      24.491852
... FFT-box specified

Basis initialisation ...
... Atom positions lie inside simulation cell
... NGWF spheres initialised
... Projector spheres initialised
... NGWF tight boxes initialised
... NGWF basis size (local,global):      28468     91184
... Tight-boxes gathered
... done

============================== PSINC grid sizes ================================
                      Simulation cell:  102 x 102 x 102
                              FFT-box:   81 x  81 x  81
                                  PPD:    6 x   3 x   1
Grid space d1=  0.500000000000a0 (KE cutoff=  30.38533Eh = 826.82697eV)
Grid space d2=  0.500000000000a0 (KE cutoff=  30.38533Eh = 826.82697eV)
Grid space d3=  0.500000000000a0 (KE cutoff=  30.38533Eh = 826.82697eV)
================================================================================

********************** Fourier parallelisation information *********************
       Coarse grid (whole simulation cell) dimensions:    102   102   102

                 Real-space grid ('12' slabs):
                   Node    0:   25 (from    1 to   25)
                   Node    1:   26 (from   26 to   51)
                   Node    2:   26 (from   52 to   77)
                   Node    3:   25 (from   78 to  102)

                 Reciprocal-space grid ('23' slabs):
                   Node    0:   13 (from    1 to   13)
                   Node    1:   13 (from   14 to   26)
                   Node    2:   13 (from   27 to   39)
                   Node    3:   13 (from   40 to   52)
********************************************************************************

=========================== Sparse matrix information ==========================
                        Overlap matrix filling: 100.00%
                        Density kernel filling: 100.00%
              NGWF-Proj overlap matrix filling:  77.08%
                    Hamiltonian matrix filling: 100.00%
                  NGWF diagonal matrix filling:  20.31%
                             KS matrix filling: 100.00% 
                           KSKS matrix filling: 100.00% 
================================================================================

Sparse matrix initialisation ... done
NGWF initialisation ...... done

============ Calculation of NGWF S^-1 using Hotelling algorithm ================ 
         Iteration  |  Frobenius norm and Maximum abs value    (of I-S*S_n^-1)   
               1       0.33873065E+01     0.87195226E+00
               2       0.30318181E+01     0.76030683E+00
               3       0.26125809E+01     0.59504965E+00
               4       0.21913303E+01     0.56148471E+00
               5       0.18205758E+01     0.52185056E+00
               6       0.14505473E+01     0.45366053E+00
               7       0.10083921E+01     0.34703263E+00
               8       0.56129156E+00     0.20975618E+00
               9       0.20761635E+00     0.81188840E-01
              10       0.30752749E-01     0.12779044E-01
              11       0.70500499E-03     0.32083733E-03
              12       0.41002059E-06     0.20236698E-06
              13       0.15878604E-12     0.80269125E-13
================================================================================
Up spin density kernel initialisation ... 
======= Optimisation of K by Palser-Manolopoulos canonical purification ======== 
         Iteration  |  Band structure energy |    c_n   
               1         -12.34808080548337    0.5563716
               2         -12.94432541414105    0.5288181
               3         -13.58548472044709    0.4797840
               4         -14.09268197904313    0.3990272
               5         -14.28628373963804    0.3634541
               6         -14.36336089567329    0.3677007
               7         -14.42208472073723    0.3551815
               8         -14.45871242362882    0.3488570
               9         -14.47824944896348    0.3832359
              10         -14.49385336205444    0.4319063
              11         -14.50750254560318    0.4746958
              12         -14.51759317364290    0.4963256
              13         -14.52284686045075    0.4999229
              14         -14.52407484549841    0.5000000
              15         -14.52413004189540    0.5000000
              16         -14.52413014635209    0.5033552
              17         -14.52413014635245    0.9999547
Final occupancy bounds: [    0.00000000000000:    1.00000000000000]
Closest occupancy to 0.5:     1.00000000000000
================================================================================
... done
   Initial electron number for spin 1:      20.00000000
     Final electron number for spin 1:      20.00000000
................................................................................
<<<<<<<<<<<<<<<< Penalty functional density kernel optimisation >>>>>>>>>>>>>>>>
~~~~~~~~~~~~~~~~~~~~~~~~~~~~~~~~~~~~~~~~~~~~~~~~~~~~~~~~~~~~~~~~~~~~~~~~~~~~~~~~
iter|       energy      |   rms grad  |  commutator |LScoef|CGcoef|      Ne    |
      Q0=E0+P0:     -36.631511167208=    -36.631511167208+      0.000000000000
    Trial step:       1.000000000000
            G0:     -17.524717398145
WARNING: minimum value of charge density: -0.3213
      Q1=E1+P1:     182.814634246708=    -17.451282687793+    200.265916934500
Quadratic term:    -236.970862812061
   Linear term:     -17.524717398145
  Optimal step:       0.036976523591
 Predicted min:     -36.955512730355
    !!! Quadratic minimum step length accepted !!!
 1    -36.63151116720845 0.26164083652 0.22118729599 0.0370  0.000   20.00000000
WARNING: minimum value of charge density: -0.0015
      Q0=E0+P0:     -37.161615194536=    -37.229987527395+      0.068372332859
    Trial step:       0.192292806914
            G0:      -2.572033840790
WARNING: minimum value of charge density: -0.0026
      Q1=E1+P1:     -37.608257481383=    -37.716552042004+      0.108294560620
Quadratic term:      -0.047941319875
   Linear term:      -0.494583606722
  Optimal step:       0.991888315120
 Predicted min:     -38.437200350922
    !!! Quadratic minimum step length accepted !!!
 2    -37.22998752739484 0.17679396522 0.20871393724 0.9919 -0.488   20.00000000
WARNING: minimum value of charge density: -0.0070
      Q0=E0+P0:     -36.965560317213=    -39.397612470431+      2.432052153218
    Trial step:       0.436729880200
WARNING: internal_polak_cg_coeff = 12.69593
WARNING: setting internal_polak_cg_coeff to zero
            G0:    -100.280915786063
WARNING: minimum value of charge density: -1.1861
      Q1=E1+P1:     122.677038215826=      4.611237221755+    118.065800994071
Quadratic term:    -203.438270870585
   Linear term:     -43.795672337546
  Optimal step:       0.047009047637
 Predicted min:     -39.322615490866
    !!! Quadratic minimum step length accepted !!!
 3    -39.39761247043093 0.62587724618 0.24248199472 0.0470  0.000   20.00000000
WARNING: minimum value of charge density: -0.0013

======================== Penalty functional minimisation =======================
   Final total energy     :     -39.448891773353
   Final penalty energy   :       0.531456756571
   RMS occupancy error    :       0.091126
   Occupancy bounds       : [-0.108, 1.169]
================================================================================

Finished density kernel iterations (   3)

################################################################################
########################### NGWF CG iteration  001 #############################
################################################################################
****** Reciprocal space K.E. preconditioning with k_zero =  3.0000 a0^-1 *******
   Initial electron number for spin 1:      20.00000000
     Final electron number for spin 1:      20.00000000

=================== Penalty functional idempotency correction ==================
 RMS occupancy error at iteration   1:  0.091126 (step -0.3779 Ne1=     20.0000)
 RMS occupancy error at iteration   2:  0.017505 (step -0.5462 Ne1=     20.0000)
 RMS occupancy error at iteration   3:  0.000943 (step -0.5018 Ne1=     20.0000)
            Final RMS occupancy error   :  0.000003 (Ne1=     20.0000)
               Final occupancy bounds   : [  0.0000,  1.0000]
================================================================================

................................................................................
<<<<<<<<<<<<<< LNV (Original version) density kernel optimisation >>>>>>>>>>>>>>
~~~~~~~~~~~~~~~~~~~~~~~~~~~~~~~~~~~~~~~~~~~~~~~~~~~~~~~~~~~~~~~~~~~~~~~~~~~~~~~~
iter|       energy      |  rms DeltaK |  commutator |LScoef|CGcoef|      Ne    |
      ideal mu1:      -0.195911850794
             Q0:     -38.656361334123
             G0:      -2.318418549775
   RMS gradient:       0.095164712263
    Initial Ne1:      19.99999932
      Final Ne1:      20.00000000

=================== Penalty functional idempotency correction ==================
 RMS occupancy error at iteration   1:  0.002446 (step -0.4920 Ne1=     20.0000)
 RMS occupancy error at iteration   2:  0.000012 (step -0.5000 Ne1=     20.0000)
            Final RMS occupancy error   :  0.000000 (Ne1=     20.0000)
               Final occupancy bounds   : [  0.0000,  1.0000]
================================================================================

 1    -38.65636133412251 0.00000000000 0.15135446998 0.1000  0.000   20.00000000
      ideal mu1:      -0.252887119616
             Q0:     -38.868035687200
             G0:      -2.948830480644
   RMS gradient:       0.079486315357
    Initial Ne1:      19.99999952
      Final Ne1:      20.00000000

=================== Penalty functional idempotency correction ==================
 RMS occupancy error at iteration   1:  0.008935 (step -0.4726 Ne1=     20.0000)
 RMS occupancy error at iteration   2:  0.000156 (step -0.4998 Ne1=     20.0000)
            Final RMS occupancy error   :  0.000000 (Ne1=     20.0000)
               Final occupancy bounds   : [  0.0000,  1.0000]
================================================================================

 2    -38.86803568719994 0.01406178696 0.12701358464 0.1000  0.698   20.00000000
      ideal mu1:      -0.334764694104
 3    -39.10709868480357 0.02108755439 0.08738559667 0.0000  0.000   20.00000000
Finished density kernel iterations (   3)

           ........................................................
           | *** NGWF optimisation not converged ***              |
           | RMS NGWF gradient =    0.00292370007154              |
           | Criteria not satisfied:                              |
           | -> RMS NGWF gradient higher than set threshold.      |
           ========================================================

------------------------------- NGWF line search -------------------------------
============ Calculation of NGWF S^-1 using Hotelling algorithm ================ 
         Iteration  |  Frobenius norm and Maximum abs value    (of I-S*S_n^-1)   
               1       0.21347969E-01     0.72055661E-02
               2       0.12211864E-03     0.58753323E-04
               3       0.68567509E-08     0.36402481E-08
               4       0.18278792E-14     0.72164497E-15
================================================================================
============ Calculation of NGWF S^-1 using Hotelling algorithm ================ 
         Iteration  |  Frobenius norm and Maximum abs value    (of I-S*S_n^-1)   
               1       0.15430669E+00     0.51467786E-01
               2       0.69972090E-02     0.30734859E-02
               3       0.23821305E-04     0.10915185E-04
               4       0.34374629E-09     0.16213897E-09
               5       0.14071508E-14     0.66613381E-15
================================================================================
RMS gradient                =       0.00292370007154
Trial step length           =               0.122474
Gradient along search dir.  =         -1.10699450709
Functional at step 0        =     -39.10709868480357
Functional at step 1        =     -39.23428645460642
Functional predicted        =     -39.65476757024884
Selected quadratic step     =               0.989470
Conjugate gradients coeff.  =               0.000000
--------------------------- NGWF line search finished --------------------------
                                               

################################################################################
########################### NGWF CG iteration  002 #############################
################################################################################
****** Reciprocal space K.E. preconditioning with k_zero =  3.0000 a0^-1 *******
   Initial electron number for spin 1:      20.32345812
     Final electron number for spin 1:      20.00000000

=================== Penalty functional idempotency correction ==================
 RMS occupancy error at iteration   1:  0.011348 (step -0.4771 Ne1=     20.0000)
 RMS occupancy error at iteration   2:  0.000217 (step -0.5003 Ne1=     20.0000)
 RMS occupancy error at iteration   3:  0.000000 (step -0.5000 Ne1=     20.0000)
            Final RMS occupancy error   :  0.000000 (Ne1=     20.0000)
               Final occupancy bounds   : [  0.0000,  1.0000]
================================================================================

................................................................................
<<<<<<<<<<<<<< LNV (Original version) density kernel optimisation >>>>>>>>>>>>>>
~~~~~~~~~~~~~~~~~~~~~~~~~~~~~~~~~~~~~~~~~~~~~~~~~~~~~~~~~~~~~~~~~~~~~~~~~~~~~~~~
iter|       energy      |  rms DeltaK |  commutator |LScoef|CGcoef|      Ne    |
      ideal mu1:      -0.434806799538
             Q0:     -39.646918982833
             G0:      -0.128744375833
   RMS gradient:       0.022425604074
     Trial step:       0.500000000000
             Q1:     -39.692383958875
 Quadratic coef:       0.018907211875
 Linear coef   :      -0.064372187917
           Qmin:     -39.701709961596
Quadratic minimum step length (  0.851159181263) accepted
    Initial Ne1:      20.00000000
      Final Ne1:      20.00000000

=================== Penalty functional idempotency correction ==================
 RMS occupancy error at iteration   1:  0.009567 (step -0.4729 Ne1=     20.0000)
 RMS occupancy error at iteration   2:  0.000146 (step -0.4999 Ne1=     20.0000)
            Final RMS occupancy error   :  0.000000 (Ne1=     20.0000)
               Final occupancy bounds   : [  0.0000,  1.0000]
================================================================================

 1    -39.64691898283279 0.00000000000 0.03907572293 0.8512  0.000   20.00000000
      ideal mu1:      -0.476684903549
             Q0:     -39.700204084217
             G0:      -0.035590620558
   RMS gradient:       0.012134077194
     Trial step:       0.652364614791
             Q1:     -39.715527477690
 Quadratic coef:       0.007894667998
 Linear coef   :      -0.023218061470
           Qmin:     -39.717275048398
Quadratic minimum step length (  0.959295674706) accepted
    Initial Ne1:      19.99999666
      Final Ne1:      20.00000000

=================== Penalty functional idempotency correction ==================
 RMS occupancy error at iteration   1:  0.010113 (step -0.4703 Ne1=     20.0000)
 RMS occupancy error at iteration   2:  0.000180 (step -0.4998 Ne1=     20.0000)
            Final RMS occupancy error   :  0.000000 (Ne1=     20.0000)
               Final occupancy bounds   : [  0.0000,  1.0000]
================================================================================

 2    -39.70020408421744 0.02662824847 0.01900818161 0.9593  0.293   20.00000000
      ideal mu1:      -0.489929447896
 3    -39.71828927397098 0.01674004537 0.01123842092 0.0000  0.000   20.00000000
Finished density kernel iterations (   3)

           ........................................................
           | *** NGWF optimisation not converged ***              |
           | RMS NGWF gradient =    0.00115518271631              |
           | Criteria not satisfied:                              |
           | -> RMS NGWF gradient higher than set threshold.      |
           ========================================================

------------------------------- NGWF line search -------------------------------
============ Calculation of NGWF S^-1 using Hotelling algorithm ================ 
         Iteration  |  Frobenius norm and Maximum abs value    (of I-S*S_n^-1)   
               1       0.11084382E-01     0.40062946E-02
               2       0.36757648E-04     0.23433660E-04
               3       0.70988289E-09     0.56348382E-09
               4       0.15737054E-14     0.66613381E-15
================================================================================
============ Calculation of NGWF S^-1 using Hotelling algorithm ================ 
         Iteration  |  Frobenius norm and Maximum abs value    (of I-S*S_n^-1)   
               1       0.21635269E-01     0.82144574E-02
               2       0.14062537E-03     0.73917777E-04
               3       0.85698961E-08     0.55412270E-08
               4       0.16755062E-14     0.66613381E-15
================================================================================
RMS gradient                =       0.00115518271631
Trial step length           =               0.348116
Gradient along search dir.  =         -0.15288101684
Functional at step 0        =     -39.71828927397098
Functional at step 1        =     -39.76212981033781
Functional predicted        =     -39.79378136162267
Selected quadratic step     =               0.987593
Conjugate gradients coeff.  =               0.156112
--------------------------- NGWF line search finished --------------------------
                                               

################################################################################
########################### NGWF CG iteration  003 #############################
################################################################################
****** Reciprocal space K.E. preconditioning with k_zero =  3.0000 a0^-1 *******
   Initial electron number for spin 1:      20.03907384
     Final electron number for spin 1:      20.00000000

=================== Penalty functional idempotency correction ==================
 RMS occupancy error at iteration   1:  0.002372 (step -0.4974 Ne1=     20.0000)
 RMS occupancy error at iteration   2:  0.000024 (step -0.5001 Ne1=     20.0000)
            Final RMS occupancy error   :  0.000000 (Ne1=     20.0000)
               Final occupancy bounds   : [  0.0000,  1.0000]
================================================================================

................................................................................
<<<<<<<<<<<<<< LNV (Original version) density kernel optimisation >>>>>>>>>>>>>>
~~~~~~~~~~~~~~~~~~~~~~~~~~~~~~~~~~~~~~~~~~~~~~~~~~~~~~~~~~~~~~~~~~~~~~~~~~~~~~~~
iter|       energy      |  rms DeltaK |  commutator |LScoef|CGcoef|      Ne    |
      ideal mu1:      -0.468418220425
             Q0:     -39.793905718039
             G0:      -0.009283846862
   RMS gradient:       0.006022045068
     Trial step:       0.791081887860
             Q1:     -39.796262746043
 Quadratic coef:       0.004987255098
 Linear coef   :      -0.007344283102
           Qmin:     -39.796609534729
Quadratic minimum step length (  0.582477658229) accepted
    Initial Ne1:      19.99999999
      Final Ne1:      20.00000000

=================== Penalty functional idempotency correction ==================
 RMS occupancy error at iteration   1:  0.000311 (step -0.4991 Ne1=     20.0000)
 RMS occupancy error at iteration   2:  0.000000 (step -0.5000 Ne1=     20.0000)
            Final RMS occupancy error   :  0.000000 (Ne1=     20.0000)
               Final occupancy bounds   : [  0.0000,  1.0000]
================================================================================

 1    -39.79390571803950 0.00000000000 0.00927439358 0.5825  0.000   20.00000000
      ideal mu1:      -0.459277276086
             Q0:     -39.796609006121
             G0:      -0.002268211116
   RMS gradient:       0.002974280518
     Trial step:       0.678813321546
             Q1:     -39.797472087766
 Quadratic coef:       0.000676610277
 Linear coef   :      -0.001539691922
           Qmin:     -39.797484935476
Quadratic minimum step length (  0.772352580917) accepted
    Initial Ne1:      20.00000000
      Final Ne1:      20.00000000

=================== Penalty functional idempotency correction ==================
 RMS occupancy error at iteration   1:  0.000325 (step -0.4991 Ne1=     20.0000)
 RMS occupancy error at iteration   2:  0.000000 (step -0.5000 Ne1=     20.0000)
            Final RMS occupancy error   :  0.000000 (Ne1=     20.0000)
               Final occupancy bounds   : [  0.0000,  1.0000]
================================================================================

 2    -39.79660900612149 0.00520349500 0.00522972150 0.7724  0.244   20.00000000
      ideal mu1:      -0.462344357609
 3    -39.79748576122249 0.00355305101 0.00268573476 0.0000  0.000   20.00000000
Finished density kernel iterations (   3)

           ........................................................
           | *** NGWF optimisation not converged ***              |
           | RMS NGWF gradient =    0.00044641185528              |
           | Criteria not satisfied:                              |
           | -> RMS NGWF gradient higher than set threshold.      |
           ========================================================

------------------------------- NGWF line search -------------------------------
============ Calculation of NGWF S^-1 using Hotelling algorithm ================ 
         Iteration  |  Frobenius norm and Maximum abs value    (of I-S*S_n^-1)   
               1       0.10070784E-01     0.26228653E-02
               2       0.37384013E-04     0.11539577E-04
               3       0.82353247E-09     0.26511626E-09
               4       0.14930455E-14     0.66613381E-15
================================================================================
============ Calculation of NGWF S^-1 using Hotelling algorithm ================ 
         Iteration  |  Frobenius norm and Maximum abs value    (of I-S*S_n^-1)   
               1       0.80258361E-02     0.21882497E-02
               2       0.24937031E-04     0.76795821E-05
               3       0.38807643E-09     0.12105839E-09
               4       0.16568061E-14     0.66613381E-15
================================================================================
RMS gradient                =       0.00044641185528
Trial step length           =               0.586342
Gradient along search dir.  =         -0.02585376081
Functional at step 0        =     -39.79748576122249
Functional at step 1        =     -39.80830836523111
Functional predicted        =     -39.81073362796351
Selected quadratic step     =               1.024831
Conjugate gradients coeff.  =               0.149338
--------------------------- NGWF line search finished --------------------------
                                               

################################################################################
########################### NGWF CG iteration  004 #############################
################################################################################
****** Reciprocal space K.E. preconditioning with k_zero =  3.0000 a0^-1 *******
   Initial electron number for spin 1:      20.02475922
     Final electron number for spin 1:      20.00000000

=================== Penalty functional idempotency correction ==================
 RMS occupancy error at iteration   1:  0.001556 (step -0.4994 Ne1=     20.0000)
 RMS occupancy error at iteration   2:  0.000009 (step -0.5000 Ne1=     20.0000)
            Final RMS occupancy error   :  0.000000 (Ne1=     20.0000)
               Final occupancy bounds   : [  0.0000,  1.0000]
================================================================================

................................................................................
<<<<<<<<<<<<<< LNV (Original version) density kernel optimisation >>>>>>>>>>>>>>
~~~~~~~~~~~~~~~~~~~~~~~~~~~~~~~~~~~~~~~~~~~~~~~~~~~~~~~~~~~~~~~~~~~~~~~~~~~~~~~~
iter|       energy      |  rms DeltaK |  commutator |LScoef|CGcoef|      Ne    |
      ideal mu1:      -0.459476688944
             Q0:     -39.810735367492
             G0:      -0.000581081606
   RMS gradient:       0.001506602145
     Trial step:       0.724074043767
             Q1:     -39.810874634142
 Quadratic coef:       0.000281479458
 Linear coef   :      -0.000420746108
           Qmin:     -39.810892596805
Quadratic minimum step length (  0.541160868501) accepted
    Initial Ne1:      19.99999999
      Final Ne1:      20.00000000

=================== Penalty functional idempotency correction ==================
 RMS occupancy error at iteration   1:  0.000016 (step -0.5000 Ne1=     20.0000)
            Final RMS occupancy error   :  0.000000 (Ne1=     20.0000)
               Final occupancy bounds   : [  0.0000,  1.0000]
================================================================================

 1    -39.81073536749182 0.00000000000 0.00267447199 0.5412  0.000   20.00000000
      ideal mu1:      -0.458524352333
             Q0:     -39.810893396117
             G0:      -0.000159092289
   RMS gradient:       0.000790920740
     Trial step:       0.625971675385
             Q1:     -39.810964626111
 Quadratic coef:       0.000028357272
 Linear coef   :      -0.000099587266
           Qmin:     -39.810980830687
Quadratic minimum step length (  1.099167918042) accepted
    Initial Ne1:      19.99999994
      Final Ne1:      20.00000000

=================== Penalty functional idempotency correction ==================
 RMS occupancy error at iteration   1:  0.000044 (step -0.4999 Ne1=     20.0000)
            Final RMS occupancy error   :  0.000000 (Ne1=     20.0000)
               Final occupancy bounds   : [  0.0000,  1.0000]
================================================================================

 2    -39.81089339611695 0.00107062521 0.00140434826 1.0992  0.276   20.00000000
      ideal mu1:      -0.460152580198
 3    -39.81098271483089 0.00116024011 0.00082577814 0.0000  0.000   20.00000000
Finished density kernel iterations (   3)

           ........................................................
           | *** NGWF optimisation not converged ***              |
           | RMS NGWF gradient =    0.00021682779095              |
           | Criteria not satisfied:                              |
           | -> RMS NGWF gradient higher than set threshold.      |
           ========================================================

------------------------------- NGWF line search -------------------------------
============ Calculation of NGWF S^-1 using Hotelling algorithm ================ 
         Iteration  |  Frobenius norm and Maximum abs value    (of I-S*S_n^-1)   
               1       0.11149857E-01     0.25880257E-02
               2       0.59206109E-04     0.18559977E-04
               3       0.27241064E-08     0.91034491E-09
               4       0.12275809E-14     0.44408921E-15
================================================================================
============ Calculation of NGWF S^-1 using Hotelling algorithm ================ 
         Iteration  |  Frobenius norm and Maximum abs value    (of I-S*S_n^-1)   
               1       0.67459901E-02     0.16572631E-02
               2       0.22845856E-04     0.70301842E-05
               3       0.41724640E-09     0.13466739E-09
               4       0.14919879E-14     0.44408921E-15
================================================================================
RMS gradient                =       0.00021682779095
Trial step length           =               0.775178
Gradient along search dir.  =         -0.00611113066
Functional at step 0        =     -39.81098271483089
Functional at step 1        =     -39.81419699384046
Functional predicted        =     -39.81466658623798
Selected quadratic step     =               1.205627
Conjugate gradients coeff.  =               0.235917
--------------------------- NGWF line search finished --------------------------
                                               

################################################################################
########################### NGWF CG iteration  005 #############################
################################################################################
****** Reciprocal space K.E. preconditioning with k_zero =  3.0000 a0^-1 *******
   Initial electron number for spin 1:      20.03048364
     Final electron number for spin 1:      20.00000000

=================== Penalty functional idempotency correction ==================
 RMS occupancy error at iteration   1:  0.001301 (step -0.4979 Ne1=     20.0000)
 RMS occupancy error at iteration   2:  0.000004 (step -0.5000 Ne1=     20.0000)
            Final RMS occupancy error   :  0.000000 (Ne1=     20.0000)
               Final occupancy bounds   : [  0.0000,  1.0000]
================================================================================

................................................................................
<<<<<<<<<<<<<< LNV (Original version) density kernel optimisation >>>>>>>>>>>>>>
~~~~~~~~~~~~~~~~~~~~~~~~~~~~~~~~~~~~~~~~~~~~~~~~~~~~~~~~~~~~~~~~~~~~~~~~~~~~~~~~
iter|       energy      |  rms DeltaK |  commutator |LScoef|CGcoef|      Ne    |
      ideal mu1:      -0.461437572967
             Q0:     -39.814645249717
             G0:      -0.000336707516
   RMS gradient:       0.001146849482
     Trial step:       0.829486578062
             Q1:     -39.814674904109
 Quadratic coef:       0.000249639973
 Linear coef   :      -0.000279294365
           Qmin:     -39.814723367558
Quadratic minimum step length (  0.464010079320) accepted
    Initial Ne1:      20.00000000
      Final Ne1:      20.00000000

=================== Penalty functional idempotency correction ==================
 RMS occupancy error at iteration   1:  0.000008 (step -0.5000 Ne1=     20.0000)
            Final RMS occupancy error   :  0.000000 (Ne1=     20.0000)
               Final occupancy bounds   : [  0.0000,  1.0000]
================================================================================

 1    -39.81464524971696 0.00000000000 0.00178476359 0.4640  0.000   20.00000000
      ideal mu1:      -0.459245367693
             Q0:     -39.814722985637
             G0:      -0.000039564365
   RMS gradient:       0.000393953756
     Trial step:       0.620395142535
             Q1:     -39.814740058714
 Quadratic coef:       0.000007472463
 Linear coef   :      -0.000024545540
           Qmin:     -39.814743142429
Quadratic minimum step length (  1.018936698729) accepted
    Initial Ne1:      19.99999998
      Final Ne1:      20.00000000

=================== Penalty functional idempotency correction ==================
 RMS occupancy error at iteration   1:  0.000007 (step -0.5000 Ne1=     20.0000)
            Final RMS occupancy error   :  0.000000 (Ne1=     20.0000)
               Final occupancy bounds   : [  0.0000,  1.0000]
================================================================================

 2    -39.81472298563742 0.00075919412 0.00068395768 1.0189  0.118   20.00000000
      ideal mu1:      -0.459235402529
 3    -39.81474313480054 0.00057531218 0.00062585633 0.0000  0.000   20.00000000
Finished density kernel iterations (   3)

           ........................................................
           | *** NGWF optimisation not converged ***              |
           | RMS NGWF gradient =    0.00012415701783              |
           | Criteria not satisfied:                              |
           | -> RMS NGWF gradient higher than set threshold.      |
           ========================================================

================================================================================
           ---------------- ENERGY COMPONENTS (Eh) ----------------
           | Kinetic                    :       27.31726583013714 |
           | Pseudopotential (local)    :     -147.66587662566198 |
           | Pseudopotential (non-local):        7.51547047306311 |
           | Hartree                    :       58.07622790850454 |
           | Exchange-correlation       :       -9.54968232706906 |
           | Ewald                      :       24.49185160622570 |
           | Total                      :      -39.81474313480054 |
           --------------------------------------------------------
           ------ LOCAL ENERGY COMPONENTS FROM MATRIX TRACES ------
           | Pseudopotential (local)    :     -147.66587662566192 |
           | Hartree                    :       58.07622790850473 |
           --------------------------------------------------------
           Integrated density           :       19.99999999999993
           Integrated density tr(KS)    :       20.00000000000000
================================================================================


------------------------------- NGWF line search -------------------------------
============ Calculation of NGWF S^-1 using Hotelling algorithm ================ 
         Iteration  |  Frobenius norm and Maximum abs value    (of I-S*S_n^-1)   
               1       0.13364421E-01     0.39847441E-02
               2       0.98974559E-04     0.37100486E-04
               3       0.77857059E-08     0.27882432E-08
               4       0.16621759E-14     0.66613381E-15
================================================================================
============ Calculation of NGWF S^-1 using Hotelling algorithm ================ 
         Iteration  |  Frobenius norm and Maximum abs value    (of I-S*S_n^-1)   
               1       0.26399163E-02     0.74401765E-03
               2       0.40332803E-05     0.14752672E-05
               3       0.13289954E-10     0.48012705E-11
               4       0.17102120E-14     0.88817842E-15
================================================================================
RMS gradient                =       0.00012415701783
Trial step length           =               0.966735
Gradient along search dir.  =         -0.00202025236
Functional at step 0        =     -39.81474313480054
Functional at step 1        =     -39.81587085557199
Functional predicted        =     -39.81589855428498
Selected quadratic step     =               1.143837
Conjugate gradients coeff.  =               0.327878
--------------------------- NGWF line search finished --------------------------
                                               

################################################################################
########################### NGWF CG iteration  006 #############################
################################################################################
****** Reciprocal space K.E. preconditioning with k_zero =  3.0000 a0^-1 *******
   Initial electron number for spin 1:      20.01449946
     Final electron number for spin 1:      20.00000000

=================== Penalty functional idempotency correction ==================
 RMS occupancy error at iteration   1:  0.000804 (step -0.4991 Ne1=     20.0000)
 RMS occupancy error at iteration   2:  0.000002 (step -0.5000 Ne1=     20.0000)
            Final RMS occupancy error   :  0.000000 (Ne1=     20.0000)
               Final occupancy bounds   : [  0.0000,  1.0000]
================================================================================

................................................................................
<<<<<<<<<<<<<< LNV (Original version) density kernel optimisation >>>>>>>>>>>>>>
~~~~~~~~~~~~~~~~~~~~~~~~~~~~~~~~~~~~~~~~~~~~~~~~~~~~~~~~~~~~~~~~~~~~~~~~~~~~~~~~
iter|       energy      |  rms DeltaK |  commutator |LScoef|CGcoef|      Ne    |
      ideal mu1:      -0.461847191046
             Q0:     -39.815895659662
             G0:      -0.000180643258
   RMS gradient:       0.000840022457
     Trial step:       0.795074448365
             Q1:     -39.815904522648
 Quadratic coef:       0.000134761853
 Linear coef   :      -0.000143624839
           Qmin:     -39.815933927343
Quadratic minimum step length (  0.423682360745) accepted
    Initial Ne1:      20.00000000
      Final Ne1:      20.00000000

=================== Penalty functional idempotency correction ==================
 RMS occupancy error at iteration   1:  0.000003 (step -0.5000 Ne1=     20.0000)
            Final RMS occupancy error   :  0.000000 (Ne1=     20.0000)
               Final occupancy bounds   : [  0.0000,  1.0000]
================================================================================

 1    -39.81589565966154 0.00000000000 0.00140191157 0.4237  0.000   20.00000000
      ideal mu1:      -0.460294503206
             Q0:     -39.815933211786
             G0:      -0.000022473057
   RMS gradient:       0.000295288736
     Trial step:       0.580395571357
             Q1:     -39.815942883558
 Quadratic coef:       0.000003371490
 Linear coef   :      -0.000013043263
           Qmin:     -39.815945826883
Quadratic minimum step length (  1.122686331737) accepted
    Initial Ne1:      20.00000000
      Final Ne1:      20.00000000

=================== Penalty functional idempotency correction ==================
 RMS occupancy error at iteration   1:  0.000005 (step -0.5000 Ne1=     20.0000)
            Final RMS occupancy error   :  0.000000 (Ne1=     20.0000)
               Final occupancy bounds   : [  0.0000,  1.0000]
================================================================================

 2    -39.81593321178580 0.00048780299 0.00049827719 1.1227  0.124   20.00000000
      ideal mu1:      -0.460091121830
 3    -39.81594582377492 0.00047020499 0.00057093091 0.0000  0.000   20.00000000
Finished density kernel iterations (   3)

           ........................................................
           | *** NGWF optimisation not converged ***              |
           | RMS NGWF gradient =    0.00007202533018              |
           | Criteria not satisfied:                              |
           | -> RMS NGWF gradient higher than set threshold.      |
           ========================================================

------------------------------- NGWF line search -------------------------------
============ Calculation of NGWF S^-1 using Hotelling algorithm ================ 
         Iteration  |  Frobenius norm and Maximum abs value    (of I-S*S_n^-1)   
               1       0.13128939E-01     0.41822013E-02
               2       0.99125452E-04     0.40211994E-04
               3       0.76812944E-08     0.29929828E-08
               4       0.14147891E-14     0.66613381E-15
================================================================================
============ Calculation of NGWF S^-1 using Hotelling algorithm ================ 
         Iteration  |  Frobenius norm and Maximum abs value    (of I-S*S_n^-1)   
               1       0.14325248E-02     0.43829051E-03
               2       0.12180320E-05     0.48472037E-06
               3       0.11861199E-11     0.45674575E-12
================================================================================
RMS gradient                =       0.00007202533018
Trial step length           =               1.051564
Gradient along search dir.  =         -0.00069464351
Functional at step 0        =     -39.81594582377492
Functional at step 1        =     -39.81626899543452
Functional predicted        =     -39.81627333874585
Selected quadratic step     =               0.942973
Conjugate gradients coeff.  =               0.336533
--------------------------- NGWF line search finished --------------------------
                                               

################################################################################
########################### NGWF CG iteration  007 #############################
################################################################################
****** Reciprocal space K.E. preconditioning with k_zero =  3.0000 a0^-1 *******
   Initial electron number for spin 1:      20.00634975
     Final electron number for spin 1:      20.00000000

=================== Penalty functional idempotency correction ==================
 RMS occupancy error at iteration   1:  0.000458 (step -0.4995 Ne1=     20.0000)
 RMS occupancy error at iteration   2:  0.000001 (step -0.5000 Ne1=     20.0000)
            Final RMS occupancy error   :  0.000000 (Ne1=     20.0000)
               Final occupancy bounds   : [  0.0000,  1.0000]
================================================================================

................................................................................
<<<<<<<<<<<<<< LNV (Original version) density kernel optimisation >>>>>>>>>>>>>>
~~~~~~~~~~~~~~~~~~~~~~~~~~~~~~~~~~~~~~~~~~~~~~~~~~~~~~~~~~~~~~~~~~~~~~~~~~~~~~~~
iter|       energy      |  rms DeltaK |  commutator |LScoef|CGcoef|      Ne    |
      ideal mu1:      -0.461983510644
             Q0:     -39.816273965940
             G0:      -0.000059466109
   RMS gradient:       0.000481964198
     Trial step:       0.807218790021
             Q1:     -39.816278793215
 Quadratic coef:       0.000043174886
 Linear coef   :      -0.000048002161
           Qmin:     -39.816287308231
Quadratic minimum step length (  0.448735941917) accepted
    Initial Ne1:      20.00000000
      Final Ne1:      20.00000000

=================== Penalty functional idempotency correction ==================
 RMS occupancy error at iteration   1:  0.000001 (step -0.5000 Ne1=     20.0000)
            Final RMS occupancy error   :  0.000000 (Ne1=     20.0000)
               Final occupancy bounds   : [  0.0000,  1.0000]
================================================================================

 1    -39.81627396594044 0.00000000000 0.00081865444 0.4487  0.000   20.00000000
      ideal mu1:      -0.461056315807
             Q0:     -39.816287302082
             G0:      -0.000014309845
   RMS gradient:       0.000236447435
     Trial step:       0.601853872691
             Q1:     -39.816294012214
 Quadratic coef:       0.000001902304
 Linear coef   :      -0.000008612436
           Qmin:     -39.816297050006
Quadratic minimum step length (  1.362408031565) accepted
    Initial Ne1:      20.00000000
      Final Ne1:      20.00000000

=================== Penalty functional idempotency correction ==================
 RMS occupancy error at iteration   1:  0.000005 (step -0.5000 Ne1=     20.0000)
            Final RMS occupancy error   :  0.000000 (Ne1=     20.0000)
               Final occupancy bounds   : [  0.0000,  1.0000]
================================================================================

 2    -39.81628730208166 0.00028824208 0.00040868638 1.3624  0.241   20.00000000
      ideal mu1:      -0.460716002228
 3    -39.81629704577393 0.00045080685 0.00049362813 0.0000  0.000   20.00000000
Finished density kernel iterations (   3)

           ........................................................
           | *** NGWF optimisation not converged ***              |
           | RMS NGWF gradient =    0.00003936730203              |
           | Criteria not satisfied:                              |
           | -> RMS NGWF gradient higher than set threshold.      |
           ========================================================

------------------------------- NGWF line search -------------------------------
============ Calculation of NGWF S^-1 using Hotelling algorithm ================ 
         Iteration  |  Frobenius norm and Maximum abs value    (of I-S*S_n^-1)   
               1       0.62081401E-02     0.20818219E-02
               2       0.19189821E-04     0.86749677E-05
               3       0.24164275E-09     0.10674861E-09
               4       0.14830951E-14     0.66613381E-15
================================================================================
============ Calculation of NGWF S^-1 using Hotelling algorithm ================ 
         Iteration  |  Frobenius norm and Maximum abs value    (of I-S*S_n^-1)   
               1       0.71458001E-03     0.23420824E-03
               2       0.26323163E-06     0.11723686E-06
               3       0.47563181E-13     0.20428104E-13
================================================================================
RMS gradient                =       0.00003936730203
Trial step length           =               0.995789
Gradient along search dir.  =         -0.00020070174
Functional at step 0        =     -39.81629704577393
Functional at step 1        =     -39.81640696197276
Functional predicted        =     -39.81640807112805
Selected quadratic step     =               1.106372
Conjugate gradients coeff.  =               0.000000
--------------------------- NGWF line search finished --------------------------
                                               

################################################################################
########################### NGWF CG iteration  008 #############################
################################################################################
****** Reciprocal space K.E. preconditioning with k_zero =  3.0000 a0^-1 *******
   Initial electron number for spin 1:      20.00539964
     Final electron number for spin 1:      20.00000000

=================== Penalty functional idempotency correction ==================
 RMS occupancy error at iteration   1:  0.000273 (step -0.4997 Ne1=     20.0000)
 RMS occupancy error at iteration   2:  0.000000 (step -0.5000 Ne1=     20.0000)
            Final RMS occupancy error   :  0.000000 (Ne1=     20.0000)
               Final occupancy bounds   : [  0.0000,  1.0000]
================================================================================

................................................................................
<<<<<<<<<<<<<< LNV (Original version) density kernel optimisation >>>>>>>>>>>>>>
~~~~~~~~~~~~~~~~~~~~~~~~~~~~~~~~~~~~~~~~~~~~~~~~~~~~~~~~~~~~~~~~~~~~~~~~~~~~~~~~
iter|       energy      |  rms DeltaK |  commutator |LScoef|CGcoef|      Ne    |
      ideal mu1:      -0.461619626585
             Q0:     -39.816408110427
             G0:      -0.000013715117
   RMS gradient:       0.000231462037
     Trial step:       0.905522252616
             Q1:     -39.816410739313
 Quadratic coef:       0.000009790458
 Linear coef   :      -0.000012419343
           Qmin:     -39.816412048958
Quadratic minimum step length (  0.574334325503) accepted
    Initial Ne1:      20.00000000
      Final Ne1:      20.00000000

=================== Penalty functional idempotency correction ==================
 RMS occupancy error at iteration   1:  0.000001 (step -0.5000 Ne1=     20.0000)
            Final RMS occupancy error   :  0.000000 (Ne1=     20.0000)
               Final occupancy bounds   : [  0.0000,  1.0000]
================================================================================

 1    -39.81640811042732 0.00000000000 0.00040974177 0.5743  0.000   20.00000000
      ideal mu1:      -0.461339300701
             Q0:     -39.816412048269
             G0:      -0.000010109417
   RMS gradient:       0.000198722806
     Trial step:       0.721160531494
             Q1:     -39.816418371457
 Quadratic coef:       0.000000967324
 Linear coef   :      -0.000007290513
           Qmin:     -39.816425785025
Quadratic minimum step length (  2.717615815591) accepted
    Initial Ne1:      20.00000000
      Final Ne1:      20.00000000

=================== Penalty functional idempotency correction ==================
 RMS occupancy error at iteration   1:  0.000024 (step -0.4999 Ne1=     20.0000)
            Final RMS occupancy error   :  0.000000 (Ne1=     20.0000)
               Final occupancy bounds   : [  0.0000,  1.0000]
================================================================================

 2    -39.81641204826854 0.00016755731 0.00035100618 2.7176  0.737   20.00000000
      ideal mu1:      -0.461258725646
 3    -39.81642565504162 0.00082042012 0.00043176668 0.0000  0.000   20.00000000
Finished density kernel iterations (   3)

           ........................................................
           | *** NGWF optimisation not converged ***              |
           | RMS NGWF gradient =    0.00002534128865              |
           | Criteria not satisfied:                              |
           | -> RMS NGWF gradient higher than set threshold.      |
           ========================================================

------------------------------- NGWF line search -------------------------------
============ Calculation of NGWF S^-1 using Hotelling algorithm ================ 
         Iteration  |  Frobenius norm and Maximum abs value    (of I-S*S_n^-1)   
               1       0.92974169E-02     0.30934677E-02
               2       0.42663366E-04     0.19418510E-04
               3       0.12118417E-08     0.53582361E-09
               4       0.14840783E-14     0.44408921E-15
================================================================================
============ Calculation of NGWF S^-1 using Hotelling algorithm ================ 
         Iteration  |  Frobenius norm and Maximum abs value    (of I-S*S_n^-1)   
               1       0.42302133E-04     0.13687775E-04
               2       0.91993550E-09     0.41100945E-09
               3       0.17582065E-14     0.77715612E-15
================================================================================
RMS gradient                =       0.00002534128865
Trial step length           =               1.049625
Gradient along search dir.  =         -0.00008686491
Functional at step 0        =     -39.81642565504162
Functional at step 1        =     -39.81647144070119
Functional predicted        =     -39.81647144156370
Selected quadratic step     =               1.054201
Conjugate gradients coeff.  =               0.414368
--------------------------- NGWF line search finished --------------------------
                                               

################################################################################
########################### NGWF CG iteration  009 #############################
################################################################################
****** Reciprocal space K.E. preconditioning with k_zero =  3.0000 a0^-1 *******
   Initial electron number for spin 1:      20.00648616
     Final electron number for spin 1:      20.00000000

=================== Penalty functional idempotency correction ==================
 RMS occupancy error at iteration   1:  0.000356 (step -0.4996 Ne1=     20.0000)
 RMS occupancy error at iteration   2:  0.000001 (step -0.5000 Ne1=     20.0000)
[...]
Conjugate gradients coeff.  =               0.364916
--------------------------- NGWF line search finished --------------------------
                                               

################################################################################
########################### NGWF CG iteration  012 #############################
################################################################################
****** Reciprocal space K.E. preconditioning with k_zero =  3.0000 a0^-1 *******
   Initial electron number for spin 1:      20.00035787
     Final electron number for spin 1:      20.00000000

=================== Penalty functional idempotency correction ==================
 RMS occupancy error at iteration   1:  0.000020 (step -0.5000 Ne1=     20.0000)
            Final RMS occupancy error   :  0.000000 (Ne1=     20.0000)
               Final occupancy bounds   : [  0.0000,  1.0000]
================================================================================

................................................................................
<<<<<<<<<<<<<< LNV (Original version) density kernel optimisation >>>>>>>>>>>>>>
~~~~~~~~~~~~~~~~~~~~~~~~~~~~~~~~~~~~~~~~~~~~~~~~~~~~~~~~~~~~~~~~~~~~~~~~~~~~~~~~
iter|       energy      |  rms DeltaK |  commutator |LScoef|CGcoef|      Ne    |
      ideal mu1:      -0.461677002428
             Q0:     -39.816489984983
             G0:      -0.000001210508
   RMS gradient:       0.000068764422
     Trial step:       1.324658261746
             Q1:     -39.816489261241
 Quadratic coef:       0.000002327251
 Linear coef   :      -0.000001603509
           Qmin:     -39.816490261193
Quadratic minimum step length (  0.456354154630) accepted
    Initial Ne1:      19.99999997
      Final Ne1:      20.00000000

=================== Penalty functional idempotency correction ==================
 RMS occupancy error at iteration   1:  0.000000 (step -0.5000 Ne1=     20.0000)
            Final RMS occupancy error   :  0.000000 (Ne1=     20.0000)
               Final occupancy bounds   : [  0.0000,  1.0000]
================================================================================

 1    -39.81648998498303 0.00000000000 0.00010561656 0.4564  0.000   20.00000000
      ideal mu1:      -0.461790606519
             Q0:     -39.816490261242
             G0:      -0.000000156514
   RMS gradient:       0.000024724519
     Trial step:       0.777504534529
             Q1:     -39.816490324589
 Quadratic coef:       0.000000058343
 Linear coef   :      -0.000000121690
           Qmin:     -39.816490324696
Quadratic minimum step length (  0.810842022853) accepted
    Initial Ne1:      19.99999999
      Final Ne1:      20.00000000

=================== Penalty functional idempotency correction ==================
 RMS occupancy error at iteration   1:  0.000000 (step -0.5000 Ne1=     20.0000)
            Final RMS occupancy error   :  0.000000 (Ne1=     20.0000)
               Final occupancy bounds   : [  0.0000,  1.0000]
================================================================================

 2    -39.81649026124232 0.00004756741 0.00003983620 0.8108  0.129   20.00000000
      ideal mu1:      -0.461790414832
             Q0:     -39.816490324696
             G0:      -0.000000072476
   RMS gradient:       0.000016825797
     Trial step:       0.793998330952
             Q1:     -39.816490353942
 Quadratic coef:       0.000000028300
 Linear coef   :      -0.000000057546
           Qmin:     -39.816490353950
Quadratic minimum step length (  0.807276106756) accepted
    Initial Ne1:      20.00000000
      Final Ne1:      20.00000000

=================== Penalty functional idempotency correction ==================
 RMS occupancy error at iteration   1:  0.000000 (step -0.5000 Ne1=     20.0000)
            Final RMS occupancy error   :  0.000000 (Ne1=     20.0000)
               Final occupancy bounds   : [  0.0000,  1.0000]
================================================================================

 3    -39.81649032469565 0.00003383989 0.00002857885 0.8073  0.463   20.00000000
      ideal mu1:      -0.461792051173
 4    -39.81649035395031 0.00002310959 0.00002652640 0.0000  0.000   20.00000000
Finished density kernel iterations (   4)

           ........................................................
           | *** NGWF optimisation not converged ***              |
           | RMS NGWF gradient =    0.00000538712498              |
           | Criteria not satisfied:                              |
           | -> RMS NGWF gradient higher than set threshold.      |
           ========================================================

------------------------------- NGWF line search -------------------------------
WARNING: slope along search direction is positive:    0.255933E-05
         Resetting conjugate gradients!
WARNING: slope along search direction is still positive.
         Reversing search direction!!
============ Calculation of NGWF S^-1 using Hotelling algorithm ================ 
         Iteration  |  Frobenius norm and Maximum abs value    (of I-S*S_n^-1)   
               1       0.56062456E-03     0.19906219E-03
               2       0.14305820E-06     0.63423185E-07
               3       0.11808989E-13     0.55511151E-14
================================================================================
============ Calculation of NGWF S^-1 using Hotelling algorithm ================ 
         Iteration  |  Frobenius norm and Maximum abs value    (of I-S*S_n^-1)   
               1       0.18912140E-03     0.67207782E-04
               2       0.16253110E-07     0.72086859E-08
               3       0.17316724E-14     0.88817842E-15
================================================================================
RMS gradient                =       0.00000538712498
Trial step length           =               0.109418
Gradient along search dir.  =         -0.00000375832
Functional at step 0        =     -39.81649035395031
Functional at step 1        =     -39.81649045464292
Functional predicted        =     -39.81649049009270
Selected quadratic step     =               0.072449
Conjugate gradients coeff.  =              -0.562961
--------------------------- NGWF line search finished --------------------------
                                               

################################################################################
########################### NGWF CG iteration  013 #############################
################################################################################
****** Reciprocal space K.E. preconditioning with k_zero =  3.0000 a0^-1 *******
   Initial electron number for spin 1:      19.99968918
     Final electron number for spin 1:      20.00000000

=================== Penalty functional idempotency correction ==================
 RMS occupancy error at iteration   1:  0.000017 (step -0.5000 Ne1=     20.0000)
            Final RMS occupancy error   :  0.000000 (Ne1=     20.0000)
               Final occupancy bounds   : [  0.0000,  1.0000]
================================================================================

................................................................................
<<<<<<<<<<<<<< LNV (Original version) density kernel optimisation >>>>>>>>>>>>>>
~~~~~~~~~~~~~~~~~~~~~~~~~~~~~~~~~~~~~~~~~~~~~~~~~~~~~~~~~~~~~~~~~~~~~~~~~~~~~~~~
iter|       energy      |  rms DeltaK |  commutator |LScoef|CGcoef|      Ne    |
      ideal mu1:      -0.461755840851
             Q0:     -39.816490489400
             G0:      -0.000000079677
   RMS gradient:       0.000017641987
     Trial step:       0.800609693535
             Q1:     -39.816490508077
 Quadratic coef:       0.000000045113
 Linear coef   :      -0.000000063790
           Qmin:     -39.816490511949
Quadratic minimum step length (  0.566031231387) accepted
    Initial Ne1:      19.99999997
      Final Ne1:      20.00000000

=================== Penalty functional idempotency correction ==================
 RMS occupancy error at iteration   1:  0.000000 (step -0.5000 Ne1=     20.0000)
            Final RMS occupancy error   :  0.000000 (Ne1=     20.0000)
               Final occupancy bounds   : [  0.0000,  1.0000]
================================================================================

 1    -39.81649048939953 0.00000000000 0.00002921806 0.5660  0.000   20.00000000
      ideal mu1:      -0.461785841984
             Q0:     -39.816490511950
             G0:      -0.000000026146
   RMS gradient:       0.000010106047
     Trial step:       0.673179092584
             Q1:     -39.816490527030
 Quadratic coef:       0.000000002521
 Linear coef   :      -0.000000017601
           Qmin:     -39.816490542668
Quadratic minimum step length (  2.349770761766) accepted
    Initial Ne1:      19.99999996
      Final Ne1:      20.00000000

=================== Penalty functional idempotency correction ==================
 RMS occupancy error at iteration   1:  0.000000 (step -0.5000 Ne1=     20.0000)
            Final RMS occupancy error   :  0.000000 (Ne1=     20.0000)
               Final occupancy bounds   : [  0.0000,  1.0000]
================================================================================

 2    -39.81649051195020 0.00001480707 0.00001772662 2.3498  0.328   20.00000000
      ideal mu1:      -0.461787959475
             Q0:     -39.816490542667
             G0:      -0.000000062436
   RMS gradient:       0.000015617136
     Trial step:       1.257702885894
             Q1:     -39.816490576834
 Quadratic coef:       0.000000044358
 Linear coef   :      -0.000000078525
           Qmin:     -39.816490577419
Quadratic minimum step length (  1.113230698170) accepted
    Initial Ne1:      19.99999995
      Final Ne1:      20.00000000

=================== Penalty functional idempotency correction ==================
 RMS occupancy error at iteration   1:  0.000000 (step -0.5000 Ne1=     20.0000)
            Final RMS occupancy error   :  0.000000 (Ne1=     20.0000)
               Final occupancy bounds   : [  0.0000,  1.0000]
================================================================================

 3    -39.81649054266686 0.00003384985 0.00002389667 1.1132  2.388   20.00000000
      ideal mu1:      -0.461766660789
 4    -39.81649057742130 0.00004025800 0.00001933569 0.0000  0.000   20.00000000
Finished density kernel iterations (   4)

           ........................................................
           | *** NGWF optimisation not converged ***              |
           | RMS NGWF gradient =    0.00000483900642              |
           | Criteria not satisfied:                              |
           | -> RMS NGWF gradient higher than set threshold.      |
           ========================================================

------------------------------- NGWF line search -------------------------------
============ Calculation of NGWF S^-1 using Hotelling algorithm ================ 
         Iteration  |  Frobenius norm and Maximum abs value    (of I-S*S_n^-1)   
               1       0.83136129E-03     0.29448005E-03
               2       0.31554307E-06     0.13966169E-06
               3       0.55996609E-13     0.24646951E-13
================================================================================
============ Calculation of NGWF S^-1 using Hotelling algorithm ================ 
         Iteration  |  Frobenius norm and Maximum abs value    (of I-S*S_n^-1)   
               1       0.68037758E-03     0.24091513E-03
               2       0.21145312E-06     0.93576123E-07
               3       0.25665183E-13     0.11324275E-13
================================================================================
RMS gradient                =       0.00000483900642
Trial step length           =               0.089035
Gradient along search dir.  =         -0.00000301813
Functional at step 0        =     -39.81649057742130
Functional at step 1        =     -39.81649010800773
Functional predicted        =     -39.81649060187811
Selected quadratic step     =               0.016207
Conjugate gradients coeff.  =              -0.806860
--------------------------- NGWF line search finished --------------------------
                                               

################################################################################
########################### NGWF CG iteration  014 #############################
################################################################################
****** Reciprocal space K.E. preconditioning with k_zero =  3.0000 a0^-1 *******
   Initial electron number for spin 1:      20.00012561
     Final electron number for spin 1:      20.00000000

=================== Penalty functional idempotency correction ==================
 RMS occupancy error at iteration   1:  0.000007 (step -0.5000 Ne1=     20.0000)
            Final RMS occupancy error   :  0.000000 (Ne1=     20.0000)
               Final occupancy bounds   : [  0.0000,  1.0000]
================================================================================

................................................................................
<<<<<<<<<<<<<< LNV (Original version) density kernel optimisation >>>>>>>>>>>>>>
~~~~~~~~~~~~~~~~~~~~~~~~~~~~~~~~~~~~~~~~~~~~~~~~~~~~~~~~~~~~~~~~~~~~~~~~~~~~~~~~
iter|       energy      |  rms DeltaK |  commutator |LScoef|CGcoef|      Ne    |
      ideal mu1:      -0.461781497896
             Q0:     -39.816490601766
             G0:      -0.000000025343
   RMS gradient:       0.000009949684
     Trial step:       1.183263901991
             Q1:     -39.816490593833
 Quadratic coef:       0.000000037921
 Linear coef   :      -0.000000029987
           Qmin:     -39.816490607695
Quadratic minimum step length (  0.467854718940) accepted
    Initial Ne1:      20.00000000
      Final Ne1:      20.00000000

=================== Penalty functional idempotency correction ==================
 RMS occupancy error at iteration   1:  0.000000 (step -0.5000 Ne1=     20.0000)
            Final RMS occupancy error   :  0.000000 (Ne1=     20.0000)
               Final occupancy bounds   : [  0.0000,  1.0000]
================================================================================

 1    -39.81649060176612 0.00000000000 0.00001510062 0.4679  0.000   20.00000000
      ideal mu1:      -0.461785121592
             Q0:     -39.816490607695
             G0:      -0.000000006272
   RMS gradient:       0.000004949646
     Trial step:       0.744040052885
             Q1:     -39.816490609698
 Quadratic coef:       0.000000002663
 Linear coef   :      -0.000000004667
           Qmin:     -39.816490609739
Quadratic minimum step length (  0.651827464525) accepted
    Initial Ne1:      20.00000000
      Final Ne1:      20.00000000

=================== Penalty functional idempotency correction ==================
 RMS occupancy error at iteration   1:  0.000000 (step -0.5000 Ne1=     20.0000)
            Final RMS occupancy error   :  0.000000 (Ne1=     20.0000)
               Final occupancy bounds   : [  0.0000,  1.0000]
================================================================================

 2    -39.81649060769476 0.00000784372 0.00000758712 0.6518  0.247   20.00000000
      ideal mu1:      -0.461781316291
             Q0:     -39.816490609738
             G0:      -0.000000001225
   RMS gradient:       0.000002187155
     Trial step:       0.696409176546
             Q1:     -39.816490610333
 Quadratic coef:       0.000000000259
 Linear coef   :      -0.000000000853
           Qmin:     -39.816490610442
Quadratic minimum step length (  1.148578426897) accepted
    Initial Ne1:      20.00000000
      Final Ne1:      20.00000000

=================== Penalty functional idempotency correction ==================
 RMS occupancy error at iteration   1:  0.000000 (step -0.5000 Ne1=     20.0000)
            Final RMS occupancy error   :  0.000000 (Ne1=     20.0000)
               Final occupancy bounds   : [  0.0000,  1.0000]
================================================================================

 3    -39.81649060973831 0.00000617081 0.00000359024 1.1486  0.195   20.00000000
      ideal mu1:      -0.461784364961
 4    -39.81649061044049 0.00000384560 0.00000271989 0.0000  0.000   20.00000000
Finished density kernel iterations (   4)

           ........................................................
           | *** NGWF optimisation converged ***                  |
           | RMS NGWF gradient =    0.00000038095997              |
           | Criteria satisfied:                                  |
           | -> RMS NGWF gradient lower than set threshold.       |
           ========================================================

================================================================================
           ---------------- ENERGY COMPONENTS (Eh) ----------------
           | Kinetic                    :       27.28177580630012 |
           | Pseudopotential (local)    :     -147.59783194201020 |
           | Pseudopotential (non-local):        7.52435577858904 |
           | Hartree                    :       58.02419043626508 |
           | Exchange-correlation       :       -9.54083229581024 |
           | Ewald                      :       24.49185160622570 |
           | Total                      :      -39.81649061044049 |
           --------------------------------------------------------
           ------ LOCAL ENERGY COMPONENTS FROM MATRIX TRACES ------
           | Pseudopotential (local)    :     -147.59783194201040 |
           | Hartree                    :       58.02419043626492 |
           --------------------------------------------------------
           Integrated density           :       19.99999999999994
           Integrated density tr(KS)    :       20.00000000000000
================================================================================


                    <<<<< CALCULATION SUMMARY >>>>>
|ITER|    RMS GRADIENT   |     TOTAL ENERGY    |   step   |     Epredicted      
   1     0.00292370007154    -39.10709868480357   0.989470    -39.65476757024884
   2     0.00115518271631    -39.71828927397098   0.987593    -39.79378136162267
   3     0.00044641185528    -39.79748576122249   1.024831    -39.81073362796351
   4     0.00021682779095    -39.81098271483089   1.205627    -39.81466658623798
   5     0.00012415701783    -39.81474313480054   1.143837    -39.81589855428498
   6     0.00007202533018    -39.81594582377492   0.942973    -39.81627333874585
   7     0.00003936730203    -39.81629704577393   1.106372    -39.81640807112805
   8     0.00002534128865    -39.81642565504162   1.054201    -39.81647144156370
   9     0.00001244389308    -39.81647607230663   0.691771    -39.81648300855691
  10     0.00001188561318    -39.81648642181606   0.072643    -39.81648693865196
  11     0.00000717989063    -39.81648978525641   0.048094    -39.81648998599311
  12     0.00000538712498    -39.81649035395031   0.072449    -39.81649049009270
  13     0.00000483900642    -39.81649057742130   0.016207    -39.81649060187811
  14     0.00000038095997    -39.81649061044049  <-- CG                         
 
<QC>        [NGWF iterations]:       14
<QC>           [total_energy]:      -39.81649061
<QC>                     [F0]:      -39.81649058
<QC>                     [F1]:      -39.81649011
<QC>                     [F2]:        0.00000000
<QC>   [predicted_functional]:      -39.81649060
<QC>           [rms_gradient]:        0.000000380960
<QC>                 [G_init]:       -0.000003018133
<QC>        [quadratic_coeff]:        0.016207
<QC>            [cubic_coeff]:        0.000000
<QC>               [cg_coeff]:       -0.806860
<QC>           [trial_length]:        0.089035

------------------------------ TIMING INFORMATION ------------------------------
TOTAL TIME:     120.169s on     4 node(s)

Job completed: 28-05-2011 01:44 (+0100)

