Defaulting to ethernet
No MPI process pinning
Starting MPD ring...
PBS has allocated the following nodes:
cx1-8-5-2
cx1-8-5-2
cx1-8-5-2
cx1-8-5-2
---
mpiexec.intel -genv I_MPI_DEVICE ssm -genv I_MPI_DEBUG 0 -genv I_MPI_PIN no -genv I_MPI_PIN_MODE none -genv I_MPI_FALLBACK_DEVICE disable -genv DAPL_MAX_CM_RETRIES 500 -genv DAPL_MAX_CM_RESPONSE_TIME 300 -genv I_MPI_DAPL_CONNECTION_TIMEOUT 300 -machinefile /tmp/pbs.5705172.cx1/tmp.MmGRU17491 -n 4 -wdir /home/nhine/ONETEP/devel/tests/test13 /home/nhine/ONETEP/devel/bin/onetep.cx1 z-periodic_chain_DENSE

Job output begins below
-----------------------
 +---------------------------------------------------------------+
 |                                                               |
 |        ####### #     # ####### ####### ####### ######         |
 |        #     # ##    # #          #    #       #     #        |
 |        #     # # #   # #          #    #       #     #        |
 |        #     # #  #  # #####      #    #####   ######         |
 |        #     # #   # # #          #    #       #              |
 |        #     # #    ## #          #    #       #              |
 |        ####### #     # #######    #    ####### #              |
 |                                                               |
 |        Linear-Scaling Ab Initio Total Energy Program          |
 |                                                               |
 |          Release for academic collaborators of ODG            |
 |                                              Version 3.0      |
 |                                                               |
 +---------------------------------------------------------------+
 |                                                               |
 |  Authors:                                                     |
 |  Peter D. Haynes, Nicholas D. M. Hine, Arash. A. Mostofi,     |
 |  Mike C. Payne and Chris-Kriton Skylaris                      |
 |                                                               |
 |  Contributors:                                                |
 |  P. W. Avraam, S. J. Clark, O. Dieguez, S. M. M. Dubois,      |
 |  J. Dziedzic, H. H. Helal, Q. O. Hill, D. D. O`Regan,         |
 |  C. J. Pickard, M. I. J. Probert, L. Ratcliff, M. Robinson    |
 |  and A. Ruiz Serrano                                          |
 |                                                               |
 |                                   Copyright (c) 2004-2011     |
 |                                                               |
 |  Please cite:                                                 |
 |  "Introducing ONETEP: Linear-scaling density functional       |
 |   simulations on parallel computers".                         |
 |   C.-K. Skylaris, P. D. Haynes, A. A. Mostofi, M. C. Payne.   |
 |   J. Chem. Phys. 122 084119 (2005).                           |
 |                                                               |
 |          in all publications arising from your use of ONETEP. |
 |                                                               |
 +---------------------------------------------------------------+
 |                                                               |
 |   ONETEP is based on developments described in the following  |
 |   publications:                                               |
 |                                                               |
 |  "Nonorthogonal generalized Wannier function pseudopotential  |
 |   plane-wave method".                                         |
 |   C.-K. Skylaris, A. A. Mostofi, P. D. Haynes, O. Dieguez,    |
 |   M. C. Payne.                                                |
 |   Phys. Rev. B 66 035119 (2002).                              |
 |                                                               |
 |  "Preconditioned iterative minimization for linear-scaling    |
 |   electronic structure calculations".                         |
 |   A. A. Mostofi, P. D. Haynes, C.-K. Skylaris, M. C. Payne.   |
 |   J. Chem. Phys. 119(17), pp.8842-8848 (2003).                |
 |                                                               |
 |  "Total-energy calculations on a real space grid with         |
 |   localized functions and a plane-wave basis".                |
 |   A. A. Mostofi, C.-K. Skylaris, P. D. Haynes, M. C. Payne.   |
 |   Comput. Phys. Commun. 147, pp.788-802 (2002).               |
 |                                                               |
 |  "Accurate kinetic energy evaluation in electronic structure  |
 |   calculations with localized functions on real space grids"  |
 |   C.-K. Skylaris, A. A. Mostofi, P. D. Haynes, C. J. Pickard, |
 |   M. C. Payne.                                                |
 |   Comput. Phys. Commun. 140, pp.315-322 (2001).               |
 |                                                               |
 +---------------------------------------------------------------+

Job started: 28-05-2011 01:14 (+0100)

Running on     4 processors.

Reading parameters from file "z-periodic_chain_DENSE.dat" ...... done
Reading geometry and species blocks from file "z-periodic_chain_DENSE.dat" ...
    
  PSINC grid spacing along a1 set to   0.850221096800a0 from input file.
  Number of PPD points along a1 set to 5 from input file.
  PSINC grid spacing along a2 set to   0.850221096800a0 from input file.
  Number of PPD points along a2 set to 5 from input file.
  PSINC grid spacing along a3 set to   0.850221096800a0 from input file.
  Number of PPD points along a3 set to 5 from input file.
... done
-------------------------------------------------------------------------------
---------------------------- RUN-TIME PARAMETERS ------------------------------
-------------------------------------------------------------------------------
task                       : SINGLEPOINT *! Type of calculation (String)        
cutoffenergy               : 20.0000000000000      hartree *! Plane wave kineti 
kernelcutoff               : 12.0000000000000 *! Density kernel radius in Bohr  
xcfunctional               : LDA *! Exchange-correlation functional (String)    
libxcxfuncid               : 0 *! Functional identifier for which exchange func 
libxccfuncid               : 0 *! Functional identifier for which correlation f 
charge                     : 0.000000000000000E+000 *! The total charge of the  
spin                       : 0 *! Total spin of system (Integer)                
spinpolarized              : F *! Switch for spin polarization (Boolean)        
spinpolarised              : F *! Switch for spin polarisation (Boolean)        
constantefield             : 0.0 0.0 0.0 *! Cartesian coordinates of constant e 
fftboxpref                 : 45 45 45 *! Preferred FFT box dimensions (String)  
ppdnpoints                 : 5  5  5 *! PPD edge length in grid points for each 
psincspacing               : 0.8502210968  0.8502210968  0.8502210968 *! PSINC  
oldinput                   : F *! Read old-format input file (Boolean)          
develcode                  : *! For development code only (String)              
nnho                       : F *! Initialise NGWFs to nonorthogonal natural hyb 
ngwfhalo                   : -1.00000000000000 *! Halo extension to NGWF radii  
nonscforces                : F *! Include non self-consistent forces due to NGW 
maxitpalsermano            : -1 *! Maximum number of iterations for Palser-Mano 
maxitpen                   : 2 *! Max number of penalty functional iterations ( 
penparam                   : 4.00000000000000 *! Penalty functional parameter ( 
minitlnv                   : 2 *! Min number of LNV iterations (Integer)        
maxitlnv                   : 8 *! Max number of LNV iterations (Integer)        
maxitlnvcoarse             : 0 *! Max number of low-accuracy LNV iterations (In 
lnvthresholdorig           : 1.000000000000000E-009 *! LNV convergence threshol 
lnvcgtype                  : LNV_FLETCHER *! Type of CG coefficient for LNV den 
lnvcgmaxstep               : 3.00000000000000 *! Maximum length of trial step f 
exactlnv                   : F *! Use original LNV algorithm (Boolean)          
oldlnv                     : T *! Use LNV algorithm backwards compatible pre De 
lnvchecktrialsteps         : F *! Check stability of kernel at each trial step  
kerfix                     : 1 *! Density kernel fixing approach (Integer)      
maxitkernelfix             : 3 *! Maximum # iterations of Penalty Functional id 
initialdensrealspace       : F *! Construct initial density in real space from  
kerneldiis                 : F *! Use kernel DIIS in the inner loop (Boolean)   
kerneldiistype             : P *! Density mixing method (String)                
kerneldiismax              : 10 *! Max number of kernels saved during kernel DI 
kerneldiismaxit            : 25 *! Max number of kernel DIIS iterations (Intege 
kerneldiisthres            : 1.000000000000000E-009 *! Density mixing convergen 
kerneldiisliter            : 5 *! Number of linear mixing iterations (Integer)  
kerneldiiscin              : 0.900000000000000 *! Coefficient for the input ker 
kerneldiiscriteria         : 1000 *! Density mixing convergence criteria (Strin 
maxitngwfcg                : 1 *! Max number of NGWF conjugate gradients (CG) i 
ngwfcgtype                 : NGWF_FLETCHER *! Type of CG coefficient for NGWF o 
ngwfcgmaxstep              : -8.00000000000000 *! Maximum length of trial step  
eleccgmax                  : 5 *! Number of NGWF iterations to reset CG (Intege 
precondscheme              : TETER *! Recip-space preconditioning scheme (Strin 
kzero                      : 3.00000000000000 *! KE preconditioning parameter ( 
rprecond                   : 2.00000000000000 *! Radial cut-off for real-space  
precondrecip               : T *! Recip-space KE preconditioning (Boolean)      
precondreal                : F *! Real-space KE preconditioning (Boolean)       
smoothscheme               : NONE *! Smoothing scheme for the NGWF gradients at 
rsmooth                    : 1.50000000000000      bohr *! Radius of the unshav 
ksmooth                    : 5.00000000000000 *! Characteristic wavelength of t 
occmix                     : 0.250000000000000 *! Mix fraction of occupancy pre 
kernelupdate               : F *! Update density kernel during NGWF line search 
kernelchristoffelupdate    : F *! Update density kernel during NGWF line search 
maxithotelling             : 50 *! Number of Hotelling iteration per NGWF chang 
maxresidhotelling          : 1.000000000000000E-012 *! Max allowed value in Hot 
maxitngwfdiis              : 0 *! Max number of NGWF DIIS steps (Integer)       
ngwfdiissize               : 4 *! Max size of the DIIS iterative subspace (Inte 
ngwfdiisreset              : 8 *! Max number of iteration for the resetting of  
ngwfdiismaxstep            : 2.00000000000000 *! Max length of trial step for N 
ngwfthresholdorig          : 2.000000000000000E-006 *! NGWF convergence thresho 
elecenergytol              : -1.000000000000000E-003 hartree *! Tolerance on to 
elecforcetol               : -1.000000000000000E-003 ha/bohr *! Tolerance on ma 
ngwfmaxgrad                : -2.000000000000000E-005 *! Maximum permissible val 
deltaeconv                 : T *! Use consecutive energy gains as a criterion f 
locpotintbatchsize         : 10 *! Size of NGWF in fftbox batch for locpot inte 
kineticintbatchsize        : 10 *! Size of NGWF in fftbox batch for kinetic int 
densitybatchsize           : 10 *! Size of NGWF in fftbox batch for charge dens 
ngwfgradbatchsize          : 10 *! Size of NGWF in fftbox batch for NGWF gradie 
densethreshold             : 0.400000000000000 *! Threshold for matrix segment  
commsgroupsize             : 4 *! Number of nodes in a group (determines comms  
ovlpfornonlocal            : F *! Overlap sparsity for nonlocal (Boolean)       
usespacefillingcurve       : T *! Re-arrange atoms according to space-filling c 
corehamdenskernguess       : T *! Initial guess for density kernel from core Ha 
checkatoms                 : T *! Check atoms on top of each other (Boolean)    
locpotscheme               : FULL *! Scheme for evaluating local potential matr 
smoothprojectors           : -0.400000000000000 *! Halfwidth of Gaussian filter 
smoothlocpspot             : -0.400000000000000 *! Halfwidth of Gaussian filter 
oddpsincgrid               : F *! Force odd number of points in simcell psinc g 
evenpsincgrid              : F *! Force even number of points in simcell psinc  
realspaceprojectors        : F *! Whether to evaluate and store projectors in r 
outputdetail               : VERBOSE *! Level of output detail (String)         
pawoutputdetail            : DEFAULT *! Level of output detail for PAW: BRIEF,  
timingslevel               : 0 *! Level of timings output: 0(none) 1(nodes summ 
writeparams                : T *! Output runtime parameters at startup (Boolean 
writeforces                : F *! Write ionic forces (Boolean)                  
writepositions             : T *! Write ionic positions each geometry or MD ste 
writexyz                   : F *! Output coordinates in .xyz file (Boolean)     
printqc                    : T *! Print Quality Control information (Boolean)   
cubeformat                 : F *! Allow .cube format for plot outputs (Boolean) 
dxformat                   : F *! Allow .dx format for plot outputs (Boolean)   
dxformatcoarse             : F *! Output only points on the coarse grid (Boolea 
dxformatdigits             : 7 *! Number of significant digits in .dx output (I 
grdformat                  : T *! Allow .grd format for plot outputs (Boolean)  
writedensityplot           : T *! Write the charge density in plotting format ( 
writengwfplot              : F *! Write NGWFs in plotting format (Boolean)      
writengwfgradplot          : F *! Write NGWF Gradients in plotting format (Bool 
writengwfradial            : F *! Write NGWFs radial distributions (Boolean)    
writengwfgradradial        : F *! Write NGWFs gradients radial distributions (B 
writeradialstep            : 5.000000000000000E-003 bohr *! Define the grid ste 
writeradialsmear           : 1.000000000000000E-002 bohr *! Define the gaussian 
readdenskern               : F *! Read density kernel restart information (Bool 
writedenskern              : F *! Write density kernel restart information (Boo 
readtightboxngwfs          : F *! Read in universal tightbox NGWFs restart info 
writetightboxngwfs         : F *! Write in universal tightbox NGWFs restart inf 
writeconvergeddkngwfs      : F *! Only write Density Kernel and NGWFs upon conv 
readswngwfs                : F *! Read NGWFs restart information in spherical w 
writeswngwfs               : F *! Write NGWFs restart information in spherical  
writemaxl                  : 3 *! Maximum angular momentum number when writing  
readmaxl                   : 3 *! Maximum angular momentum number when reading  
extransw                   : 0 *! Maximum number of zeros of the sph Bessel fun 
paw                        : F *! Uses a PAW construction to find correct core  
finegridscale              : 2.00000000000000 *! Ratio of size of fine grid to  
dblgridscale               : 2.00000000000000 *! Ratio of charge density / pote 
augfuncsrecip              : T *! Construct Augmentation functions in recip spa 
dispersion                 : 0 *! Select dispersion correction (Integer)        
vdwdcoeff                  : -1.00000000000000 *! Replacement VDW damping coeff 
hubbardmaxiter             : 0 *! Maximum number of DFT+U projector optimisatio 
hubbardenergytol           : 1.000000000000000E-008 hartree *! Energy tolerance 
hubbardconvwin             : 2 *! Energy convergence window when using DFT+U pr 
hubbardprojmixing          : 0.000000000000000E+000 *! Proportion of old Hubbar 
hubbardfunctional          : 1 *! DFT+U energy functional to use (Integer)      
hubbardtensorcorr          : 1 *! DFT+U projector tensorial correction to use ( 
hubbardngwfspinthreshold   : 2.000000000000000E-005 *! NGWF RMS  gradient thres 
coulombcutoffradius        : 0.000000000000000E+000 *! Radius of sphere or cyli 
coulombcutofflength        : 0.000000000000000E+000 *! Length of cylinder or wi 
coulombcutofftype          : NONE *! Type of cutoff coulomb interaction: NONE,  
coulombcutoffwriteint      : F *! Write real-space cutoff Coulomb interaction s 
pbccorrectioncutoff        : 0.000000000000000E+000 *! alpha*L cutoff parameter 
doproperties               : F *! Allow calculation of properties (Boolean)     
numeigenvalues             : 10 *! Number of energy and occupancy eigenvalues t 
homodensplot               : -1 *! Number of squared MOs to plot from HOMO and  
lumodensplot               : -1 *! Number of squared MOs to plot from LUMO and  
homoplot                   : 5 *! Number of MOs to plot from HOMO and lower (In 
lumoplot                   : 5 *! Number of MOs to plot from LUMO and higher (I 
dossmear                   : 3.674932438755288E-003 hartree *! Half width of sm 
ldossmear                  : 3.674932438755288E-003 hartree *! Lorentzian broad 
popncalculate              : F *! Allow population analysis (Boolean)           
popnbondcutoff             : 5.66917840375065      bohr *! Bond length cutoff f 
ngwfanalysis               : F *! Perform NGWF analysis (Boolean)               
polarisationcalculate      : F *! Allow calculation of polarisation (Boolean)   
spreadcalculate            : F *! Calculate spread of NGWFs (Boolean)           
geommodulusest             : 1.700000000000000E-002 ha/bohr**3 *! The estimated 
geomfrequencyest           : 7.600000000000000E-003 hartree *! The estimated av 
geomenergytol              : 1.000000000000000E-006 hartree *! Geometry optimiz 
geomforcetol               : 2.000000000000000E-003 ha/bohr *! Geometry optimiz 
geomdisptol                : 5.000000000000000E-003 bohr *! Geometry optimizati 
geommaxiter                : 50 *! Maximum number of geometry optimization iter 
geomconvergencewin         : 2 *! Geometry optimization convergence tolerance w 
geomcontinuation           : F *! Read information for continuation of a previo 
geombackupiter             : 1 *! Number of geometry optimisation iterations be 
geomresetdkngwfsiter       : 6 *! Number of geom iterations between resets of k 
geomreusedkngwfs           : T *! Re-use density kernel and NGWFs during geomet 
geomprintinvhessian        : F *! Write inverse Hessian to standard output (Boo 
geommethod                 : CARTESIAN *! Method for geometry optimization (Str 
tssearchmethod             : LSTQST *! Specifies method to be used for TS searc 
tssearchlstqstprotocol     : LSTMAXIMUM *! Specifies LSTQST protocol (String)   
tssearchqstmaxiter         : 5 *! Specifies maximum number of QST steps (Intege 
tssearchcgmaxiter          : 20 *! Specifies maximum number of CG steps (Intege 
tssearchforcetol           : 5.000000000000000E-003 ha/bohr *! Force tolerance  
tssearchdisptol            : 1.000000000000000E-002 bohr *! Displacement tolera 
mddeltat                   : 40.0000000000000      aut *! Molecular dynamics ti 
mdnumiter                  : 100 *! Maximum number of molecular dynamics iterat 
mdtemperature              : 9.500000000000000E-004 hartree *! Temperature for  
mdalgorithm                : LEAPFROGVERLET *! Integration algorithm for molecu 
mdthermostat               : NONE *! Thermostat for molecular dynamics (String) 
mdcollisionfrequency       : 0.152000000000000      hartree *! Collision freque 
mixdenskern                : 0 *! Number of coefficients used to build new gues 
mixngwfs                   : 0 *! Number of coefficients used to build new gues 
condreaddenskern           : F *! Read in conduction density kernel (Boolean)   
condreadtightboxngwfs      : F *! Read in universal tightbox conduction NGWFs ( 
condfixedshift             : F *! Fixed projected conduction Hamiltonian shift  
condcalcmaxeigen           : T *! Calculate maximum conduction Hamiltonian eige 
condnumstates              : 0 *! Number of conduction states to be optimised f 
condkernelcutoff           : 1000.00000000000 *! Conduction density kernel radi 
condinitshift              : 0.000000000000000E+000 *! Initial shifting factor  
condshiftbuffer            : 0.100000000000000 *! Additional buffer for updatin 
condnumextrastates         : 0 *! Number of extra conduction states for initial 
condnumextraits            : 0 *! Number of NGWF iterations with extra conducti 
condplotjointorbitals      : T *! Plot orbitals in the joint basis following a  
condplotvcorbitals         : T *! Plot orbitals in the val and cond NGWF basis  
condcalcopticalspectra     : F *! Calculate matrix elements for optical absorpt 
condspeccalcmommatels      : T *! Calculate momentum matrix elements (default t 
condspeccalcnonloccomm     : T *! Calculate nonlocal commutator for momentum ma 
condspeccontderiv          : T *! Calculate non-local commuator using continuou 
condspecnonloccommshift    : 1.000000000000000E-004 *! Finite difference shift  
bskpointpathspacing        : 0.188972700000000      1/bohr *! K-point spacing a 
bsnumeigenvalues           : -1 *! Num of energy and occ. eigenvalues to print  
bsunfold                   : 0 0 0 *! Number of times to unfold Brillouin zone  
bsmethod                   : TB *! Method to use: 'KP' or 'TB' (String)         
dotddft                    : F *! Allow Time-Dependent DFT calculation (Boolean 
tddftmaximumenergy         : 1.00000000000000      hartree *! Desired maximum o 
tddftresolution            : 1.000000000000000E-003 hartree *! Desired resoluti 
tddftpropagationmethod     : CRANKNICHOLSON *! Method used to integrate von Neu 
tddftsparsitylevel         : 0 *! Matrix sparsity when computing propagators e. 
tddfttammdancoff           : F *! Invoke Tamm-Dancoff decoupling approximation  
tddftdipolekickstrength    : 0.0 0.0 0.0 *! Maximum allowed phase shift in TDDF 
tddftxcfunctional          : LDA *! Exchange-correlation functional for TDDFT ( 
tddfthamiltonianmixing     : 0 *! Order of polynomial extrapolation to H(t + ha 
tddftdamping               : 0.000000000000000E+000 hartree *! Energy smearing  
tddftenforcedidempotency   : F *! Project out at each timestep that part of cha 
tddftmaxithotelling        : 50 *! Number of Hotelling iteration per propagatio 
tddftmaxresidhotelling     : 1.000000000000000E-018 *! Max allowed value in Hot 
tddftinvoverlapexact       : T *! Renew inverse overlap with O N^3 algorithm be 
isimplicitsolvent          : F *! Use implicit solvent? (Boolean)               
issmearedionrep            : F *! Implicit solvent: use smeared ions for electr 
isincludecavitation        : F *! Implicit solvent: include cavitation energy ( 
isdensitythreshold         : 7.800000000000000E-004 *! Implicit solvent: rho_0  
issolvationbeta            : 1.30000000000000 *! Implicit solvent: beta paramet 
isbulkpermittivity         : 1.00000000000000 *! Implicit solvent: eps_inf para 
ismultigriddefecterrortol  : 1.000000000000000E-002 *! Implicit solvent: stop c 
ismultigriderrortol        : 1.000000000000000E-005 *! Implicit solvent: stop c 
issmearedionwidth          : 0.800000000000000 *! Implicit solvent: Width of Ga 
issurfacethickness         : 2.000000000000000E-004 *! Implicit solvent: thickn 
issolventsurfacetension    : 4.762400000000000E-005 ha/bohr**2 *! Implicit solv 
ismultigridmaxiters        : 100 *! Implicit solvent: max number of iterations  
ismultigridnlevels         : 4 *! Implicit solvent: number of levels in multigr 
isdiscretizationorder      : 8 *! Implicit solvent: discretization order (2nd,  
isbccoarseness             : 5 *! Implicit solvent: controls boundary condition 
isbcsurfacecoarseness      : 1 *! Implicit solvent: controls boundary condition 
ischecksolvenergygrad      : F *! Implicit solvent: sanity check the energy gra 
issolvationmethod          : DIRECT *! Implicit solvent: direct or corrective m 
isdielectricmodel          : FIX_INITIAL *! Implicit solvent: how the cavity is 
isdielectricfunction       : FGF *! Implicit solvent: how the cavity is determi 
issolvationoutputdetail    : NONE *! Implicit solvent: controls extra output (S 
openbcionion               : F *! Force open BCs in ion-ion energy (Boolean)    
openbchartree              : F *! Force open BCs in Hartree potential (Boolean) 
openbcpspot                : F *! Force open BCs in local pseudopotential (Bool 
openbcpspotfinetunenptsx   : 100000 *! Open BCs in local pseudo, npts_x paramet 
openbcpspotfinetunealpha   : 0.300000000000000 *! Open BCs in local pseudo, alp 
openbcpspotfinetunef       : -1 *! Open BCs in local pseudo, fineness parameter 
%block positionsabs        : *! Cartesian positions for each atom (Block)       
C           31.625373   35.462698    8.070854                                   
C           30.385323   35.550181    5.444502                                   
C           31.257559   33.191166    3.987371                                   
C           29.946351   33.107790    1.395655                                   
C           32.143505   30.203400   17.963966                                   
C           31.554575   34.915950   16.374849                                   
C           30.830865   34.903413   13.550816                                   
C           31.895559   32.717884   11.958873                                   
C           30.836712   32.933815    9.258356                                   
C           30.928843   33.576510   62.518285                                   
C           29.378653   31.953170   60.703356                                   
C           28.907718   31.986812   24.914706                                   
C           29.235757   31.263583   22.122108                                   
C           30.420469   33.481104   20.666197                                   
C           30.535163   32.639669   17.892027                                   
C           28.969923   31.291932   33.016903                                   
C           30.005170   30.878083   30.332653                                   
C           30.229931   36.177479   32.745373                                   
C           30.964170   35.819118   29.955310                                   
C           30.990504   33.148778   28.804123                                   
C           31.518797   32.566857   26.018917                                   
C           26.680383   32.283351   41.321121                                   
C           27.273305   31.999860   38.490572                                   
C           27.823851   37.189284   41.070063                                   
C           28.458357   36.889537   38.248608                                   
C           28.253729   34.283247   36.983111                                   
C           29.112690   33.931576   34.231406                                   
C           29.336717   36.112963   49.398504                                   
C           29.261672   36.343522   46.491241                                   
C           26.852834   35.033696   45.520421                                   
C           27.038102   34.858953   42.627445                                   
C           30.354016   34.803266   56.856133                                   
C           31.283666   34.730265   54.085769                                   
C           29.258781   33.049174   52.863261                                   
C           29.578219   33.276983   49.995241                                   
C           30.557248   32.155570   58.060682                                   
O           28.983888   26.005661   30.651795                                   
C           30.111862   28.193816   29.208672                                   
O           31.349904   27.746879   26.673680                                   
C           36.430346   27.011476   17.081122                                   
O           33.884434   26.331407   15.987173                                   
C           32.396406   28.714539   15.482514                                   
O           37.528231   29.606151   16.633661                                   
O           29.783169   28.018722   14.569772                                   
H           30.923198   37.106187    9.275154                                   
H           30.571761   36.656742   17.178091                                   
H           30.185101   38.151141   33.608187                                   
H           27.976473   39.123956   42.010894                                   
H           27.431023   36.843100   50.088751                                   
H           28.290350   35.421205   56.871799                                   
H           30.948877   37.345938    4.396724                                   
H           31.496585   36.755160   12.672277                                   
H           31.454571   37.527021   28.737324                                   
H           29.123752   38.583819   37.105029                                   
H           30.979465   35.313880   45.698293                                   
H           33.256643   33.923893   53.771844                                   
H           33.072804   33.587638   62.739489                                   
H           29.075370   24.270295   29.477243                                   
H           37.487859   25.581995   18.297183                                   
H           28.162733   29.633817   34.131715                                   
H           26.785968   33.032209   46.314604                                   
H           28.705923   29.777337   14.188206                                   
H           28.235362   30.574691   26.395663                                   
H           27.519806   33.621973   25.117996                                   
H           26.033414   30.574708   42.462916                                   
H           27.316572   30.806133   21.265738                                   
H           30.514534   29.537230   21.963610                                   
H           27.047568   30.087309   37.525133                                   
H           33.771162   35.548864    7.891889                                   
H           33.676500   35.125182   16.682576                                   
H           30.927196   37.212776   50.348322                                   
H           31.527209   36.207018   57.993858                                   
H           28.244475   35.485756    5.673679                                   
H           28.680996   34.817438   13.435960                                   
H           29.303749   38.404230   45.864122                                   
H           31.160527   36.719946   53.268703                                   
H           30.886935   35.624521   61.850669                                   
H           33.395918   33.244757    3.731794                                   
H           30.718506   31.433962    5.111701                                   
H           34.048079   32.785896   11.936328                                   
H           31.219859   30.850827   12.768387                                   
H           25.094019   36.116526   46.132159                                   
H           29.450212   31.010722   53.534112                                   
H           27.311338   33.805904   53.387585                                   
H           29.452835   29.903722   61.363291                                   
H           27.332106   32.623895   60.651602                                   
H           28.486002   31.725987    1.170282                                   
H           31.881829   32.499406    1.177466                                   
H           28.687968   32.837683    9.340552                                   
H           31.573105   31.311487    8.049442                                   
H           28.126176   32.319598   48.722529                                   
H           31.556128   32.634918   49.431841                                   
H           29.409043   30.794509   56.903204                                   
H           32.613063   31.513477   58.107904                                   
H           29.173391   35.228177   20.842578                                   
H           32.392771   33.907126   21.419871                                   
H           32.806556   30.847323   25.841930                                   
H           32.390990   34.272214   25.029731                                   
H           31.208878   28.877080   19.380229                                   
H           34.112290   30.699777   18.682788                                   
H           28.518942   32.212722   17.263550                                   
H           33.422541   29.901264   14.008698                                   
%endblock positionsabs     : *! Cartesian positions for each atom (Block)       
%block latticecart         : *! The simulation cell lattice vectors (Block)     
63.76658226     0.00000000     0.00000000                                       
0.00000000    63.76658226     0.00000000                                        
0.00000000     0.00000000    63.76658226                                        
%endblock latticecart      : *! The simulation cell lattice vectors (Block)     
%block species             : *! Species information (symbol, atomic number, num 
C   C   6   4   6.3                                                             
O   O   8   4   6.3                                                             
H   H   1   1   6.0                                                             
%endblock species          : *! Species information (symbol, atomic number, num 
%block speciespot          : *! Pseudopotential name for each species (Block)   
C   "../../pseudo/carbon.recpot"                                                
O   "../../pseudo/oxygen.recpot"                                                
H   "../../pseudo/hydrogen_coul.recpot"                                         
%endblock speciespot       : *! Pseudopotential name for each species (Block)   
%block speciesatomicset    : *! Atomic set name for each species (Block)        
C   "../../fireballs/C_SZ_6.0_recpot00_600eV.fbl"                               
O   "../../fireballs/O_SZ_6.0_recpot01_600eV.fbl"                               
H   "../../fireballs/H_SZ_6.0_recpot00_600eV.fbl"                               
%endblock speciesatomicset : *! Atomic set name for each species (Block)        
-------------------------------------------------------------------------------
-------------------------------------------------------------------------------

WARNING in pseudopotentials_read_species: string "GGA" found in pseudopotential
file "../../pseudo/carbon.recpot", yet xc_functional = "LDA".
 
<<<<<<<<<<<<<<<<<<<<<<<<< Pseudopotential information >>>>>>>>>>>>>>>>>>>>>>>>>
File: ../../pseudo/carbon.recpot [ 2001 points up to Gmax=  52.9 (1/bohr)]
  Atomic number:  6;  ionic charge:  4.000000
    Shell 1: l = 0; rc = 1.48 bohr
File: ../../pseudo/oxygen.recpot [ 2001 points up to Gmax=  52.9 (1/bohr)]
  Atomic number:  8;  ionic charge:  6.000000
    Shell 1: l = 0; rc = 1.31 bohr
File: ../../pseudo/hydrogen_coul.recpot [ 2001 points up to Gmax=  52.9 (1/bohr)]
  Atomic number:  1;  ionic charge:  1.000000
    Local potential
<<<<<<<<<<<<<<<<<<<<<<<<<<<<<<<<<<<<<<< >>>>>>>>>>>>>>>>>>>>>>>>>>>>>>>>>>>>>>>

------------------------- Atom counting information ---------------------------
Symbol    Natoms    Nngwfs    Nprojs
  C         39       156        39
  O          5        20         5
  H         58        58         0
.......   ......    ......    ......
Totals:    102       234        44
-------------------------------------------------------------------------------
 
Determining parallel strategy ...
... using space-filling curve
... NGWF load balancing: max     59;  min     57;  average     59
... Projector load balancing: max     12;  min     10;  average     11
... done

Calculating Ewald energy ...
              Ewald: real-space energy =    1133.114352
        Ewald: reciprocal-space energy =     376.020429
         Ewald: (sum_charge)**2 Energy =      99.913259
         Ewald: (sum_charge**2) Energy =      29.220041
                          Ewald Energy =    1380.001481
... FFT-box specified

Basis initialisation ...
... Atom positions lie inside simulation cell
... NGWF spheres initialised
... Projector spheres initialised
... NGWF tight boxes initialised
... NGWF basis size (local,global):      42252    169480
... Tight-boxes gathered
... done

============================== PSINC grid sizes ================================
                      Simulation cell:   75 x  75 x  75
                              FFT-box:   45 x  45 x  45
                                  PPD:    5 x   5 x   5
Grid space d1=  0.850221096800a0 (KE cutoff=  10.50849Eh = 285.95052eV)
Grid space d2=  0.850221096800a0 (KE cutoff=  10.50849Eh = 285.95052eV)
Grid space d3=  0.850221096800a0 (KE cutoff=  10.50849Eh = 285.95052eV)
================================================================================

********************** Fourier parallelisation information *********************
       Coarse grid (whole simulation cell) dimensions:     75    75    75

                 Real-space grid ('12' slabs):
                   Node    0:   18 (from    1 to   18)
                   Node    1:   19 (from   19 to   37)
                   Node    2:   19 (from   38 to   56)
                   Node    3:   19 (from   57 to   75)

                 Reciprocal-space grid ('23' slabs):
                   Node    0:    9 (from    1 to    9)
                   Node    1:   10 (from   10 to   19)
                   Node    2:   10 (from   20 to   29)
                   Node    3:    9 (from   30 to   38)
********************************************************************************

********************** Fourier parallelisation information *********************
       Double grid (whole simulation cell) dimensions:    150   150   150

                 Real-space grid ('12' slabs):
                   Node    0:   37 (from    1 to   37)
                   Node    1:   38 (from   38 to   75)
                   Node    2:   38 (from   76 to  113)
                   Node    3:   37 (from  114 to  150)

                 Reciprocal-space grid ('23' slabs):
                   Node    0:   19 (from    1 to   19)
                   Node    1:   19 (from   20 to   38)
                   Node    2:   19 (from   39 to   57)
                   Node    3:   19 (from   58 to   76)
********************************************************************************

=========================== Sparse matrix information ==========================
                        Overlap matrix filling:  36.85%
                        Density kernel filling:  34.63%
              NGWF-Proj overlap matrix filling:  19.60%
                    Hamiltonian matrix filling:  40.05%
                  NGWF diagonal matrix filling:   1.39%
                             KS matrix filling:  71.27% 
                           KSKS matrix filling: 100.00% 
================================================================================

Sparse matrix initialisation ... done
NGWF initialisation ...... done

============ Calculation of NGWF S^-1 using Hotelling algorithm ================ 
         Iteration  |  Frobenius norm and Maximum abs value    (of I-S*S_n^-1)   
               1       0.14809394E+02     0.98405610E+00
               2       0.14412056E+02     0.96847403E+00
               3       0.13796450E+02     0.93834450E+00
               4       0.12961975E+02     0.88190467E+00
               5       0.11965667E+02     0.78502140E+00
               6       0.10895383E+02     0.72035770E+00
               7       0.98524048E+01     0.68924325E+00
               8       0.88201647E+01     0.64618998E+00
               9       0.75274593E+01     0.57832847E+00
              10       0.57355629E+01     0.47189012E+00
              11       0.36077316E+01     0.32747438E+00
              12       0.16965075E+01     0.17838993E+00
              13       0.50640468E+00     0.64944453E-01
              14       0.85055956E-01     0.10165033E-01
              15       0.61359778E-01     0.51589238E-02
              16       0.61687324E-01     0.51949323E-02
================================================================================
Up spin density kernel initialisation ... orfac =   1.000000000000000E-004
... done
   Initial electron number for spin 1:     244.00000000
     Final electron number for spin 1:     244.00000000
................................................................................
<<<<<<<<<<<<<<<< Penalty functional density kernel optimisation >>>>>>>>>>>>>>>>
~~~~~~~~~~~~~~~~~~~~~~~~~~~~~~~~~~~~~~~~~~~~~~~~~~~~~~~~~~~~~~~~~~~~~~~~~~~~~~~~
iter|       energy      |   rms grad  |  commutator |LScoef|CGcoef|      Ne    |
      Q0=E0+P0:    -310.199247044413=   -310.291969962590+      0.092722918178
    Trial step:       1.000000000000
            G0:    -196.991275399848
WARNING: minimum value of charge density: -0.5485
      Q1=E1+P1:    4114.581775610764=   -326.107952630878+   4440.689728241641
Quadratic term:   -4621.772298055024
   Linear term:    -196.991275399848
  Optimal step:       0.021311226808
 Predicted min:    -312.298309919059
    !!! Quadratic minimum step length accepted !!!
 1   -310.29196996259026 0.10193054106 0.12991916576 0.0213  0.000  244.00000000
WARNING: minimum value of charge density: -0.0001
      Q0=E0+P0:    -313.973909804668=   -314.338024833672+      0.364115029004
    Trial step:       0.145983652538
            G0:     -37.358056362238
WARNING: minimum value of charge density: -0.0012
      Q1=E1+P1:    -315.487941629078=   -319.510572257819+      4.022630628740
Quadratic term:      -3.939633695058
   Linear term:      -5.453665519469
  Optimal step:       0.101043151962
 Predicted min:    -315.861297687680
    !!! Quadratic minimum step length accepted !!!
 2   -314.33802483367202 0.08335394128 0.12436395029 0.1010 -0.604  244.00000000
WARNING: minimum value of charge density: -0.0008

======================== Penalty functional minimisation =======================
   Final total energy     :    -318.117990379517
   Final penalty energy   :       2.163486697299
   RMS occupancy error    :       0.048077
   Occupancy bounds       : [-0.071, 1.223]
================================================================================

Finished density kernel iterations (   2)

################################################################################
########################### NGWF CG iteration  001 #############################
################################################################################
****** Reciprocal space K.E. preconditioning with k_zero =  3.0000 a0^-1 *******
   Initial electron number for spin 1:     244.00000000
     Final electron number for spin 1:     244.00000000

=================== Penalty functional idempotency correction ==================
 RMS occupancy error at iteration   1:  0.048077 (step -0.3983 Ne1=    244.0000)
 RMS occupancy error at iteration   2:  0.010452 (step -0.6278 Ne1=    244.0000)
 RMS occupancy error at iteration   3:  0.005434 (step -0.8359 Ne1=    244.0000)
            Final RMS occupancy error   :  0.004665 (Ne1=    244.0000)
               Final occupancy bounds   : [ -0.0018,  1.0178]
================================================================================

................................................................................
<<<<<<<<<< LNV (Millam-Scuseria variant) density kernel optimisation >>>>>>>>>>>
~~~~~~~~~~~~~~~~~~~~~~~~~~~~~~~~~~~~~~~~~~~~~~~~~~~~~~~~~~~~~~~~~~~~~~~~~~~~~~~~
iter|       energy      |  rms DeltaK |  commutator |LScoef|CGcoef|      Ne    |
      ideal mu1:      -0.000013212617
-mu(2tr(KS)-Ne):       0.000000000000
             Q0:    -311.746160305590
DltNe tr(Dir*S):      -0.000076753682
             G0:     -23.378939448045
   RMS gradient:       0.035115045587
    Initial Ne1:     243.99996162
      Final Ne1:     244.00000000

=================== Penalty functional idempotency correction ==================
 RMS occupancy error at iteration   1:  0.100563 (step -0.2947 Ne1=    244.0000)
            Final RMS occupancy error   :  0.042007 (Ne1=    244.0000)
               Final occupancy bounds   : [ -0.0143,  1.0669]
================================================================================

-mu(2tr(KS)-Ne):       0.000000000000
     Trial step:       0.500000000000
             Q1:    -311.914698998746
 Quadratic coef:      11.520931030867
 Linear coef   :     -11.689469724023
           Qmin:    -314.711278794338
Quadratic minimum step length (  0.253657228151) accepted
 1   -311.74616030559042 0.00000000000 0.11358009494 0.2537  0.000  243.97789450
      ideal mu1:      -0.000940691067
 2   -315.47767199674661 0.01681579734 0.04261568743 0.0000  0.000  243.89047466
Finished density kernel iterations (   2)

           ........................................................
           | *** NGWF optimisation not converged ***              |
           | RMS NGWF gradient =    0.01690743077754              |
           | Criteria not satisfied:                              |
           | -> RMS NGWF gradient higher than set threshold.      |
           ========================================================

================================================================================
           ---------------- ENERGY COMPONENTS (Eh) ----------------
           | Kinetic                    :      215.26380052562996 |
           | Pseudopotential (local)    :    -3467.65556267283455 |
           | Pseudopotential (non-local):       41.00239811442640 |
           | Hartree                    :     1614.28424112432208 |
           | Exchange-correlation       :      -98.37402967085944 |
           | Ewald                      :     1380.00148058256900 |
           | Total                      :     -315.47767199674661 |
           --------------------------------------------------------
           ------ LOCAL ENERGY COMPONENTS FROM MATRIX TRACES ------
           | Pseudopotential (local)    :    -3467.65556267283318 |
           | Hartree                    :     1614.28424112432094 |
           --------------------------------------------------------
           Integrated density           :      243.97789450288258
           Integrated density tr(KS)    :      243.97789450288437
================================================================================


------------------------------- NGWF line search -------------------------------
============ Calculation of NGWF S^-1 using Hotelling algorithm ================ 
         Iteration  |  Frobenius norm and Maximum abs value    (of I-S*S_n^-1)   
               1       0.36803075E+00     0.95320476E-01
               2       0.68725003E-01     0.10166285E-01
               3       0.64714529E-01     0.53999968E-02
               4       0.64713524E-01     0.53996516E-02
               5       0.64713520E-01     0.53996527E-02
               6       0.64713520E-01     0.53996526E-02
================================================================================
============ Calculation of NGWF S^-1 using Hotelling algorithm ================ 
         Iteration  |  Frobenius norm and Maximum abs value    (of I-S*S_n^-1)   
               1       0.93404029E-01     0.18649625E-01
               2       0.65282793E-01     0.54333270E-02
               3       0.65290015E-01     0.54361417E-02
================================================================================
RMS gradient                =       0.01690743077754
Trial step length           =               0.122474
Gradient along search dir.  =       -110.14775769426
Functional at step 0        =    -315.47777502625456
Functional at step 1        =    -323.17391969165055
Functional predicted        =    -323.33000832318561
Selected quadratic step     =               0.142576
Conjugate gradients coeff.  =               0.000000
--------------------------- NGWF line search finished --------------------------
                                               
WARNING: maximum number of NGWF CG iterations (   1) exceeded!

                    <<<<< CALCULATION SUMMARY >>>>>
|ITER|    RMS GRADIENT   |     TOTAL ENERGY    |   step   |     Epredicted      
   1     0.01690743077754   -315.47767199674661  <-- CG                         
 
<QC>        [NGWF iterations]:        1
<QC>           [total_energy]:     -315.47767200
<QC>                     [F0]:     -315.47777503
<QC>                     [F1]:     -323.17391969
<QC>                     [F2]:        0.00000000
<QC>   [predicted_functional]:     -323.33000832
<QC>           [rms_gradient]:        0.016907430778
<QC>                 [G_init]:     -110.147757694260
<QC>        [quadratic_coeff]:        0.142576
<QC>            [cubic_coeff]:        0.000000
<QC>               [cg_coeff]:        0.000000
<QC>           [trial_length]:        0.122474

------------------------------ TIMING INFORMATION ------------------------------
TOTAL TIME:     112.883s on     4 node(s)

Job completed: 28-05-2011 01:16 (+0100)

