 +---------------------------------------------------------------+
 |                                                               |
 |        ####### #     # ####### ####### ####### ######         |
 |        #     # ##    # #          #    #       #     #        |
 |        #     # # #   # #          #    #       #     #        |
 |        #     # #  #  # #####      #    #####   ######         |
 |        #     # #   # # #          #    #       #              |
 |        #     # #    ## #          #    #       #              |
 |        ####### #     # #######    #    ####### #              |
 |                                                               |
 |        Linear-Scaling Ab Initio Total Energy Program          |
 |                                                               |
 |          Release for academic collaborators of ODG            |
 |                                              Version 3.0      |
 |                                                               |
 +---------------------------------------------------------------+
 |                                                               |
 |  Authors:                                                     |
 |  Peter D. Haynes, Nicholas D. M. Hine, Arash. A. Mostofi,     |
 |  Mike C. Payne and Chris-Kriton Skylaris                      |
 |                                                               |
 |  Contributors:                                                |
 |  P. W. Avraam, S. J. Clark, O. Dieguez, S. M. M. Dubois,      |
 |  J. Dziedzic, H. H. Helal, Q. O. Hill, D. D. O`Regan,         |
 |  C. J. Pickard, M. I. J. Probert, L. Ratcliff, M. Robinson    |
 |  and A. Ruiz Serrano                                          |
 |                                                               |
 |                                   Copyright (c) 2004-2011     |
 |                                                               |
 |  Please cite:                                                 |
 |  "Introducing ONETEP: Linear-scaling density functional       |
 |   simulations on parallel computers".                         |
 |   C.-K. Skylaris, P. D. Haynes, A. A. Mostofi, M. C. Payne.   |
 |   J. Chem. Phys. 122 084119 (2005).                           |
 |                                                               |
 |          in all publications arising from your use of ONETEP. |
 |                                                               |
 +---------------------------------------------------------------+
 |                                                               |
 |   ONETEP is based on developments described in the following  |
 |   publications:                                               |
 |                                                               |
 |  "Nonorthogonal generalized Wannier function pseudopotential  |
 |   plane-wave method".                                         |
 |   C.-K. Skylaris, A. A. Mostofi, P. D. Haynes, O. Dieguez,    |
 |   M. C. Payne.                                                |
 |   Phys. Rev. B 66 035119 (2002).                              |
 |                                                               |
 |  "Preconditioned iterative minimization for linear-scaling    |
 |   electronic structure calculations".                         |
 |   A. A. Mostofi, P. D. Haynes, C.-K. Skylaris, M. C. Payne.   |
 |   J. Chem. Phys. 119(17), pp.8842-8848 (2003).                |
 |                                                               |
 |  "Total-energy calculations on a real space grid with         |
 |   localized functions and a plane-wave basis".                |
 |   A. A. Mostofi, C.-K. Skylaris, P. D. Haynes, M. C. Payne.   |
 |   Comput. Phys. Commun. 147, pp.788-802 (2002).               |
 |                                                               |
 |  "Accurate kinetic energy evaluation in electronic structure  |
 |   calculations with localized functions on real space grids"  |
 |   C.-K. Skylaris, A. A. Mostofi, P. D. Haynes, C. J. Pickard, |
 |   M. C. Payne.                                                |
 |   Comput. Phys. Commun. 140, pp.315-322 (2001).               |
 |                                                               |
 +---------------------------------------------------------------+

Job started: 27-05-2011 23:48 (+0100)

Running on     4 processors.

Reading parameters from file "ethene_props.dat" ...... done
Reading geometry and species blocks from file "ethene_props.dat" ...
  <species_atomic_set> block not found: NGWF initialisation set to AUTO
... done
-------------------------------------------------------------------------------
---------------------------- RUN-TIME PARAMETERS ------------------------------
-------------------------------------------------------------------------------
task                        : SINGLEPOINT *! Type of calculation (String)       
cutoffenergy                : 14.69959768981288       hartree *! Plane wave kin 
kernelcutoff                : 1000.000000000000 *! Density kernel radius in Boh 
xcfunctional                : LDA *! Exchange-correlation functional (String)   
libxcxfuncid                : 0 *! Functional identifier for which exchange fun 
libxccfuncid                : 0 *! Functional identifier for which correlation  
charge                      : 0.000000000000000 *! The total charge of the syst 
spin                        : 0 *! Total spin of system (Integer)               
spinpolarized               : F *! Switch for spin polarization (Boolean)       
spinpolarised               : F *! Switch for spin polarisation (Boolean)       
constantefield              : 0.0 0.0 0.0 *! Cartesian coordinates of constant  
fftboxpref                  : 0 0 0 *! Preferred FFT box dimensions (String)    
ppdnpoints                  : 0 0 0 *! PPD edge length in grid points for each  
psincspacing                : 0.0 0.0 0.0 *! PSINC grid spacing in atomic units 
oldinput                    : F *! Read old-format input file (Boolean)         
develcode                   : *! For development code only (String)             
nnho                        : T *! Initialise NGWFs to nonorthogonal natural hy 
ngwfhalo                    : -1.000000000000000 *! Halo extension to NGWF radi 
nonscforces                 : F *! Include non self-consistent forces due to NG 
maxitpalsermano             : 50 *! Maximum number of iterations for Palser-Man 
maxitpen                    : 3 *! Max number of penalty functional iterations  
penparam                    : 4.000000000000000 *! Penalty functional parameter 
minitlnv                    : 3 *! Min number of LNV iterations (Integer)       
maxitlnv                    : 8 *! Max number of LNV iterations (Integer)       
maxitlnvcoarse              : 0 *! Max number of low-accuracy LNV iterations (I 
lnvthresholdorig            : 1.0000000000000001E-009 *! LNV convergence thresh 
lnvcgtype                   : LNV_FLETCHER *! Type of CG coefficient for LNV de 
lnvcgmaxstep                : 3.000000000000000 *! Maximum length of trial step 
exactlnv                    : T *! Use original LNV algorithm (Boolean)         
oldlnv                      : F *! Use LNV algorithm backwards compatible pre D 
lnvchecktrialsteps          : F *! Check stability of kernel at each trial step 
kerfix                      : 1 *! Density kernel fixing approach (Integer)     
maxitkernelfix              : 3 *! Maximum # iterations of Penalty Functional i 
initialdensrealspace        : F *! Construct initial density in real space from 
kerneldiis                  : F *! Use kernel DIIS in the inner loop (Boolean)  
kerneldiistype              : P *! Density mixing method (String)               
kerneldiismax               : 10 *! Max number of kernels saved during kernel D 
kerneldiismaxit             : 25 *! Max number of kernel DIIS iterations (Integ 
kerneldiisthres             : 1.0000000000000001E-009 *! Density mixing converg 
kerneldiisliter             : 5 *! Number of linear mixing iterations (Integer) 
kerneldiiscin               : 0.9000000000000000 *! Coefficient for the input k 
kerneldiiscriteria          : 1000 *! Density mixing convergence criteria (Stri 
maxitngwfcg                 : 60 *! Max number of NGWF conjugate gradients (CG) 
ngwfcgtype                  : NGWF_FLETCHER *! Type of CG coefficient for NGWF  
ngwfcgmaxstep               : -8.000000000000000 *! Maximum length of trial ste 
eleccgmax                   : 5 *! Number of NGWF iterations to reset CG (Integ 
precondscheme               : TETER *! Recip-space preconditioning scheme (Stri 
kzero                       : 3.000000000000000 *! KE preconditioning parameter 
rprecond                    : 2.000000000000000 *! Radial cut-off for real-spac 
precondrecip                : T *! Recip-space KE preconditioning (Boolean)     
precondreal                 : F *! Real-space KE preconditioning (Boolean)      
smoothscheme                : NONE *! Smoothing scheme for the NGWF gradients a 
rsmooth                     : 1.500000000000000       bohr *! Radius of the uns 
ksmooth                     : 5.000000000000000 *! Characteristic wavelength of 
occmix                      : 0.2500000000000000 *! Mix fraction of occupancy p 
kernelupdate                : F *! Update density kernel during NGWF line searc 
kernelchristoffelupdate     : F *! Update density kernel during NGWF line searc 
maxithotelling              : 50 *! Number of Hotelling iteration per NGWF chan 
maxresidhotelling           : 9.9999999999999998E-013 *! Max allowed value in H 
maxitngwfdiis               : 0 *! Max number of NGWF DIIS steps (Integer)      
ngwfdiissize                : 4 *! Max size of the DIIS iterative subspace (Int 
ngwfdiisreset               : 8 *! Max number of iteration for the resetting of 
ngwfdiismaxstep             : 2.000000000000000 *! Max length of trial step for 
ngwfthresholdorig           : 1.0000000000000000E-003 *! NGWF convergence thres 
elecenergytol               : -1.0000000000000000E-003  hartree *! Tolerance on 
elecforcetol                : -1.0000000000000000E-003  ha/bohr *! Tolerance on 
ngwfmaxgrad                 : -2.0000000000000002E-005 *! Maximum permissible v 
deltaeconv                  : T *! Use consecutive energy gains as a criterion  
locpotintbatchsize          : 10 *! Size of NGWF in fftbox batch for locpot int 
kineticintbatchsize         : 10 *! Size of NGWF in fftbox batch for kinetic in 
densitybatchsize            : 10 *! Size of NGWF in fftbox batch for charge den 
ngwfgradbatchsize           : 10 *! Size of NGWF in fftbox batch for NGWF gradi 
densethreshold              : 0.4000000000000000 *! Threshold for matrix segmen 
commsgroupsize              : 4 *! Number of nodes in a group (determines comms 
ovlpfornonlocal             : F *! Overlap sparsity for nonlocal (Boolean)      
usespacefillingcurve        : T *! Re-arrange atoms according to space-filling  
corehamdenskernguess        : T *! Initial guess for density kernel from core H 
checkatoms                  : T *! Check atoms on top of each other (Boolean)   
locpotscheme                : FULL *! Scheme for evaluating local potential mat 
smoothprojectors            : -0.4000000000000000 *! Halfwidth of Gaussian filt 
smoothlocpspot              : -0.4000000000000000 *! Halfwidth of Gaussian filt 
oddpsincgrid                : F *! Force odd number of points in simcell psinc  
evenpsincgrid               : F *! Force even number of points in simcell psinc 
realspaceprojectors         : F *! Whether to evaluate and store projectors in  
outputdetail                : NORMAL *! Level of output detail (String)         
pawoutputdetail             : DEFAULT *! Level of output detail for PAW: BRIEF, 
timingslevel                : 0 *! Level of timings output: 0(none) 1(nodes sum 
writeparams                 : T *! Output runtime parameters at startup (Boolea 
writeforces                 : F *! Write ionic forces (Boolean)                 
writepositions              : T *! Write ionic positions each geometry or MD st 
writexyz                    : F *! Output coordinates in .xyz file (Boolean)    
printqc                     : T *! Print Quality Control information (Boolean)  
cubeformat                  : F *! Allow .cube format for plot outputs (Boolean 
dxformat                    : F *! Allow .dx format for plot outputs (Boolean)  
dxformatcoarse              : F *! Output only points on the coarse grid (Boole 
dxformatdigits              : 7 *! Number of significant digits in .dx output ( 
grdformat                   : T *! Allow .grd format for plot outputs (Boolean) 
writedensityplot            : F *! Write the charge density in plotting format  
writengwfplot               : F *! Write NGWFs in plotting format (Boolean)     
writengwfgradplot           : F *! Write NGWF Gradients in plotting format (Boo 
writengwfradial             : F *! Write NGWFs radial distributions (Boolean)   
writengwfgradradial         : F *! Write NGWFs gradients radial distributions ( 
writeradialstep             : 5.0000000000000001E-003  bohr *! Define the grid  
writeradialsmear            : 1.0000000000000000E-002  bohr *! Define the gauss 
readdenskern                : F *! Read density kernel restart information (Boo 
writedenskern               : F *! Write density kernel restart information (Bo 
readtightboxngwfs           : F *! Read in universal tightbox NGWFs restart inf 
writetightboxngwfs          : F *! Write in universal tightbox NGWFs restart in 
writeconvergeddkngwfs       : F *! Only write Density Kernel and NGWFs upon con 
readswngwfs                 : F *! Read NGWFs restart information in spherical  
writeswngwfs                : F *! Write NGWFs restart information in spherical 
writemaxl                   : 3 *! Maximum angular momentum number when writing 
readmaxl                    : 3 *! Maximum angular momentum number when reading 
extransw                    : 0 *! Maximum number of zeros of the sph Bessel fu 
paw                         : F *! Uses a PAW construction to find correct core 
finegridscale               : 2.000000000000000 *! Ratio of size of fine grid t 
dblgridscale                : 2.000000000000000 *! Ratio of charge density / po 
augfuncsrecip               : T *! Construct Augmentation functions in recip sp 
dispersion                  : 0 *! Select dispersion correction (Integer)       
vdwdcoeff                   : -1.000000000000000 *! Replacement VDW damping coe 
hubbardmaxiter              : 0 *! Maximum number of DFT+U projector optimisati 
hubbardenergytol            : 1.0000000000000000E-008  hartree *! Energy tolera 
hubbardconvwin              : 2 *! Energy convergence window when using DFT+U p 
hubbardprojmixing           : 0.000000000000000 *! Proportion of old Hubbard pr 
hubbardfunctional           : 1 *! DFT+U energy functional to use (Integer)     
hubbardtensorcorr           : 1 *! DFT+U projector tensorial correction to use  
hubbardngwfspinthreshold    : 2.0000000000000002E-005 *! NGWF RMS  gradient thr 
coulombcutoffradius         : 0.000000000000000 *! Radius of sphere or cylinder 
coulombcutofflength         : 0.000000000000000 *! Length of cylinder or width  
coulombcutofftype           : NONE *! Type of cutoff coulomb interaction: NONE, 
coulombcutoffwriteint       : F *! Write real-space cutoff Coulomb interaction  
pbccorrectioncutoff         : 0.000000000000000 *! alpha*L cutoff parameter for 
doproperties                : T *! Allow calculation of properties (Boolean)    
numeigenvalues              : 10 *! Number of energy and occupancy eigenvalues  
homodensplot                : 0 *! Number of squared MOs to plot from HOMO and  
lumodensplot                : 0 *! Number of squared MOs to plot from LUMO and  
homoplot                    : 0 *! Number of MOs to plot from HOMO and lower (I 
lumoplot                    : 0 *! Number of MOs to plot from LUMO and higher ( 
dossmear                    : 3.6749324387552883E-003  hartree *! Half width of 
ldossmear                   : 3.6748994224532205E-003  hartree *! Lorentzian br 
popncalculate               : F *! Allow population analysis (Boolean)          
popnbondcutoff              : 5.669178403750646       bohr *! Bond length cutof 
ngwfanalysis                : T *! Perform NGWF analysis (Boolean)              
polarisationcalculate       : F *! Allow calculation of polarisation (Boolean)  
spreadcalculate             : F *! Calculate spread of NGWFs (Boolean)          
geommodulusest              : 1.7000000000000001E-002  ha/bohr**3 *! The estima 
geomfrequencyest            : 7.6000000000000000E-003  hartree *! The estimated 
geomenergytol               : 9.9999999999999995E-007  hartree *! Geometry opti 
geomforcetol                : 2.0000000000000000E-003  ha/bohr *! Geometry opti 
geomdisptol                 : 5.0000000000000001E-003  bohr *! Geometry optimiz 
geommaxiter                 : 50 *! Maximum number of geometry optimization ite 
geomconvergencewin          : 2 *! Geometry optimization convergence tolerance  
geomcontinuation            : F *! Read information for continuation of a previ 
geombackupiter              : 1 *! Number of geometry optimisation iterations b 
geomresetdkngwfsiter        : 6 *! Number of geom iterations between resets of  
geomreusedkngwfs            : T *! Re-use density kernel and NGWFs during geome 
geomprintinvhessian         : F *! Write inverse Hessian to standard output (Bo 
geommethod                  : CARTESIAN *! Method for geometry optimization (St 
tssearchmethod              : LSTQST *! Specifies method to be used for TS sear 
tssearchlstqstprotocol      : LSTMAXIMUM *! Specifies LSTQST protocol (String)  
tssearchqstmaxiter          : 5 *! Specifies maximum number of QST steps (Integ 
tssearchcgmaxiter           : 20 *! Specifies maximum number of CG steps (Integ 
tssearchforcetol            : 5.0000000000000001E-003  ha/bohr *! Force toleran 
tssearchdisptol             : 1.0000000000000000E-002  bohr *! Displacement tol 
mddeltat                    : 40.00000000000000       aut *! Molecular dynamics 
mdnumiter                   : 100 *! Maximum number of molecular dynamics itera 
mdtemperature               : 9.5000000000000000E-004  hartree *! Temperature f 
mdalgorithm                 : LEAPFROGVERLET *! Integration algorithm for molec 
mdthermostat                : NONE *! Thermostat for molecular dynamics (String 
mdcollisionfrequency        : 0.1520000000000000       hartree *! Collision fre 
mixdenskern                 : 0 *! Number of coefficients used to build new gue 
mixngwfs                    : 0 *! Number of coefficients used to build new gue 
condreaddenskern            : F *! Read in conduction density kernel (Boolean)  
condreadtightboxngwfs       : F *! Read in universal tightbox conduction NGWFs  
condfixedshift              : F *! Fixed projected conduction Hamiltonian shift 
condcalcmaxeigen            : T *! Calculate maximum conduction Hamiltonian eig 
condnumstates               : 0 *! Number of conduction states to be optimised  
condkernelcutoff            : 1000.000000000000 *! Conduction density kernel ra 
condinitshift               : 0.000000000000000 *! Initial shifting factor for  
condshiftbuffer             : 0.1000000000000000 *! Additional buffer for updat 
condnumextrastates          : 0 *! Number of extra conduction states for initia 
condnumextraits             : 0 *! Number of NGWF iterations with extra conduct 
condplotjointorbitals       : T *! Plot orbitals in the joint basis following a 
condplotvcorbitals          : T *! Plot orbitals in the val and cond NGWF basis 
condcalcopticalspectra      : F *! Calculate matrix elements for optical absorp 
condspeccalcmommatels       : T *! Calculate momentum matrix elements (default  
condspeccalcnonloccomm      : T *! Calculate nonlocal commutator for momentum m 
condspeccontderiv           : T *! Calculate non-local commuator using continuo 
condspecnonloccommshift     : 1.0000000000000000E-004 *! Finite difference shif 
bskpointpathspacing         : 0.1889727000000000       1/bohr *! K-point spacin 
bsnumeigenvalues            : -1 *! Num of energy and occ. eigenvalues to print 
bsunfold                    : 0 0 0 *! Number of times to unfold Brillouin zone 
bsmethod                    : TB *! Method to use: 'KP' or 'TB' (String)        
dotddft                     : F *! Allow Time-Dependent DFT calculation (Boolea 
tddftmaximumenergy          : 1.000000000000000       hartree *! Desired maximu 
tddftresolution             : 1.0000000000000000E-003  hartree *! Desired resol 
tddftpropagationmethod      : CRANKNICHOLSON *! Method used to integrate von Ne 
tddftsparsitylevel          : 0 *! Matrix sparsity when computing propagators e 
tddfttammdancoff            : F *! Invoke Tamm-Dancoff decoupling approximation 
tddftdipolekickstrength     : 0.0 0.0 0.0 *! Maximum allowed phase shift in TDD 
tddftxcfunctional           : LDA *! Exchange-correlation functional for TDDFT  
tddfthamiltonianmixing      : 0 *! Order of polynomial extrapolation to H(t + h 
tddftdamping                : 0.000000000000000       hartree *! Energy smearin 
tddftenforcedidempotency    : F *! Project out at each timestep that part of ch 
tddftmaxithotelling         : 50 *! Number of Hotelling iteration per propagati 
tddftmaxresidhotelling      : 1.0000000000000001E-018 *! Max allowed value in H 
tddftinvoverlapexact        : T *! Renew inverse overlap with O N^3 algorithm b 
isimplicitsolvent           : F *! Use implicit solvent? (Boolean)              
issmearedionrep             : F *! Implicit solvent: use smeared ions for elect 
isincludecavitation         : F *! Implicit solvent: include cavitation energy  
isdensitythreshold          : 7.7999999999999999E-004 *! Implicit solvent: rho_ 
issolvationbeta             : 1.300000000000000 *! Implicit solvent: beta param 
isbulkpermittivity          : 1.000000000000000 *! Implicit solvent: eps_inf pa 
ismultigriddefecterrortol   : 1.0000000000000000E-002 *! Implicit solvent: stop 
ismultigriderrortol         : 1.0000000000000001E-005 *! Implicit solvent: stop 
issmearedionwidth           : 0.8000000000000000 *! Implicit solvent: Width of  
issurfacethickness          : 2.0000000000000001E-004 *! Implicit solvent: thic 
issolventsurfacetension     : 4.7623999999999997E-005  ha/bohr**2 *! Implicit s 
ismultigridmaxiters         : 100 *! Implicit solvent: max number of iterations 
ismultigridnlevels          : 4 *! Implicit solvent: number of levels in multig 
isdiscretizationorder       : 8 *! Implicit solvent: discretization order (2nd, 
isbccoarseness              : 5 *! Implicit solvent: controls boundary conditio 
isbcsurfacecoarseness       : 1 *! Implicit solvent: controls boundary conditio 
ischecksolvenergygrad       : F *! Implicit solvent: sanity check the energy gr 
issolvationmethod           : DIRECT *! Implicit solvent: direct or corrective  
isdielectricmodel           : FIX_INITIAL *! Implicit solvent: how the cavity i 
isdielectricfunction        : FGF *! Implicit solvent: how the cavity is determ 
issolvationoutputdetail     : NONE *! Implicit solvent: controls extra output ( 
openbcionion                : F *! Force open BCs in ion-ion energy (Boolean)   
openbchartree               : F *! Force open BCs in Hartree potential (Boolean 
openbcpspot                 : F *! Force open BCs in local pseudopotential (Boo 
openbcpspotfinetunenptsx    : 100000 *! Open BCs in local pseudo, npts_x parame 
openbcpspotfinetunealpha    : 0.3000000000000000 *! Open BCs in local pseudo, a 
openbcpspotfinetunef        : -1 *! Open BCs in local pseudo, fineness paramete 
%block positionsabs         : *! Cartesian positions for each atom (Block)      
C     21.231469   19.962216   20.048416                                         
H     22.316684   21.381117   21.086741                                         
H     22.305600   18.474510   19.097577                                         
C     18.768395   20.037541   19.951432                                         
H     17.694385   21.525477   20.902418                                         
H     17.683467   18.617139   18.913416                                         
%endblock positionsabs      : *! Cartesian positions for each atom (Block)      
%block latticecart          : *! The simulation cell lattice vectors (Block)    
40.000    0.000    0.000                                                        
0.000   40.000    0.000                                                         
0.000    0.000   40.000                                                         
%endblock latticecart       : *! The simulation cell lattice vectors (Block)    
%block species              : *! Species information (symbol, atomic number, nu 
H     H   1  1  5.50                                                            
C     C   6  4  6.00                                                            
%endblock species           : *! Species information (symbol, atomic number, nu 
%block speciespot           : *! Pseudopotential name for each species (Block)  
H     "../../pseudo/hydrogen.recpot"                                            
C     "../../pseudo/carbon.recpot"                                              
%endblock speciespot        : *! Pseudopotential name for each species (Block)  
%block speciesldosgroups    : *! Species groups for Local density of states cal 
C                                                                               
H                                                                               
%endblock speciesldosgroups : *! Species groups for Local density of states cal 
-------------------------------------------------------------------------------
-------------------------------------------------------------------------------

WARNING in pseudopotentials_read_species: string "GGA" found in pseudopotential
file "../../pseudo/carbon.recpot", yet xc_functional = "LDA".

<<<<<<<<<<<<<<<<<<<<<<<<< Pseudopotential information >>>>>>>>>>>>>>>>>>>>>>>>>
File: ../../pseudo/carbon.recpot [ 2001 points up to Gmax=  52.9 (1/bohr)]
  Atomic number:  6;  ionic charge:  4.000000
    Shell 1: l = 0; rc = 1.48 bohr
File: ../../pseudo/hydrogen.recpot [ 2001 points up to Gmax=  52.9 (1/bohr)]
  Atomic number:  1;  ionic charge:  1.000000
    Local potential
<<<<<<<<<<<<<<<<<<<<<<<<<<<<<<<<<<<<<<< >>>>>>>>>>>>>>>>>>>>>>>>>>>>>>>>>>>>>>>

------------------------- Atom counting information ---------------------------
Symbol    Natoms    Nngwfs    Nprojs
  C          2         8         2
  H          4         4         0
.......   ......    ......    ......
Totals:      6        12         2
-------------------------------------------------------------------------------

Determining parallel strategy ...... done

Calculating Ewald energy ...           14.524619 Hartree

Basis initialisation ...... done

============================== PSINC grid sizes ================================
                      Simulation cell:   56 x  56 x  56
                              FFT-box:   55 x  55 x  55
                                  PPD:    7 x   7 x   7
================================================================================

********************** Fourier parallelisation information *********************
       Coarse grid (whole simulation cell) dimensions:     56    56    56
          Real-space ('12') slabs/node (min max mean):     14    14    14
         Recip-space ('23') slabs/node (min max mean):      7     8     7
********************************************************************************

********************** Fourier parallelisation information *********************
       Double grid (whole simulation cell) dimensions:    112   112   112
          Real-space ('12') slabs/node (min max mean):     28    28    28
         Recip-space ('23') slabs/node (min max mean):     14    15    14
********************************************************************************

=========================== Sparse matrix information ==========================
                        Overlap matrix filling: 100.00%
                        Density kernel filling: 100.00%
              NGWF-Proj overlap matrix filling: 100.00%
                    Hamiltonian matrix filling: 100.00%
                  NGWF diagonal matrix filling:  25.00%
                             KS matrix filling: 100.00% 
                           KSKS matrix filling: 100.00% 
================================================================================

Sparse matrix initialisation ... done
NGWF initialisation ...... done

Up spin density kernel initialisation ...... done
................................................................................
<<<<<<<<<<<<<<<< Penalty functional density kernel optimisation >>>>>>>>>>>>>>>>
~~~~~~~~~~~~~~~~~~~~~~~~~~~~~~~~~~~~~~~~~~~~~~~~~~~~~~~~~~~~~~~~~~~~~~~~~~~~~~~~
iter|       energy      |   rms grad  |  commutator |LScoef|CGcoef|      Ne    |
 1    -12.47460706773118 0.20165043199 0.05205618077 0.0340  0.000   12.00000000
 2    -12.67358821861139 0.14627360914 0.05245934842 2.5389 -0.701   12.00000000
 3    -12.87895784980495 0.13327526679 0.03452047592 0.0373  3.862   12.00000000

======================== Penalty functional minimisation =======================
   Final total energy     :     -13.001858011160
   Final penalty energy   :       0.183752320856
   RMS occupancy error    :       0.061872
   Occupancy bounds       : [-0.080, 1.081]
================================================================================

Finished density kernel iterations (   3)

################################################################################
########################### NGWF CG iteration  001 #############################
################################################################################
****** Reciprocal space K.E. preconditioning with k_zero =  3.0000 a0^-1 *******
................................................................................
<<<<<<<<<<<<<< LNV (Original version) density kernel optimisation >>>>>>>>>>>>>>
~~~~~~~~~~~~~~~~~~~~~~~~~~~~~~~~~~~~~~~~~~~~~~~~~~~~~~~~~~~~~~~~~~~~~~~~~~~~~~~~
iter|       energy      |  rms DeltaK |  commutator |LScoef|CGcoef|      Ne    |
 1    -12.53697509889758 0.00000000000 0.03224371282 0.4287  0.000   12.00000000
 2    -12.57008956036832 0.02909307716 0.00123565988 0.5879  0.002   12.00000000
 3    -12.57015927002200 0.00167041961 0.00028720871 0.0000  0.000   12.00000000
Finished density kernel iterations (   3)
Constructing Nonorthogonal Natural Hybrid Orbitals from current NGWFs....  done

------------------------------- NGWF line search -------------------------------
RMS gradient                =       0.01367406444513
Trial step length           =               0.122474
Gradient along search dir.  =         -5.14400783778
Functional at step 0        =     -12.57015927002200
Functional at step 1        =     -13.09548308975793
Functional predicted        =     -13.51802388647548
Selected quadratic step     =               0.368532
Conjugate gradients coeff.  =               0.000000
--------------------------- NGWF line search finished --------------------------
                                               

################################################################################
########################### NGWF CG iteration  002 #############################
################################################################################
****** Reciprocal space K.E. preconditioning with k_zero =  3.0000 a0^-1 *******
................................................................................
<<<<<<<<<<<<<< LNV (Original version) density kernel optimisation >>>>>>>>>>>>>>
~~~~~~~~~~~~~~~~~~~~~~~~~~~~~~~~~~~~~~~~~~~~~~~~~~~~~~~~~~~~~~~~~~~~~~~~~~~~~~~~
iter|       energy      |  rms DeltaK |  commutator |LScoef|CGcoef|      Ne    |
 1    -13.48733446460433 0.00000000000 0.00807847810 0.5565  0.000   12.00000000
 2    -13.49575821171896 0.04854848288 0.00188775858 0.5434  0.065   12.00000000
 3    -13.49629220701921 0.00993980868 0.00036737885 0.0000  0.000   12.00000000
Finished density kernel iterations (   3)
Constructing Nonorthogonal Natural Hybrid Orbitals from current NGWFs....  done

------------------------------- NGWF line search -------------------------------
RMS gradient                =       0.00466628611349
Trial step length           =               0.212452
Gradient along search dir.  =         -0.57685064528
Functional at step 0        =     -13.49629220701921
Functional at step 1        =     -13.57312433773853
Functional predicted        =     -13.57841688888756
Selected quadratic step     =               0.284735
Conjugate gradients coeff.  =               0.116452
--------------------------- NGWF line search finished --------------------------
                                               

################################################################################
########################### NGWF CG iteration  003 #############################
################################################################################
****** Reciprocal space K.E. preconditioning with k_zero =  3.0000 a0^-1 *******
................................................................................
<<<<<<<<<<<<<< LNV (Original version) density kernel optimisation >>>>>>>>>>>>>>
~~~~~~~~~~~~~~~~~~~~~~~~~~~~~~~~~~~~~~~~~~~~~~~~~~~~~~~~~~~~~~~~~~~~~~~~~~~~~~~~
iter|       energy      |  rms DeltaK |  commutator |LScoef|CGcoef|      Ne    |
 1    -13.57867236339546 0.00000000000 0.00423940901 0.4362  0.000   12.00000000
 2    -13.58007040753684 0.01330831955 0.00018003547 0.5569  0.005   12.00000000
 3    -13.58007938261046 0.00212289304 0.00004856190 0.0000  0.000   12.00000000
Finished density kernel iterations (   3)
Constructing Nonorthogonal Natural Hybrid Orbitals from current NGWFs....  done

------------------------------- NGWF line search -------------------------------
RMS gradient                =       0.00168810452297
Trial step length           =               0.245952
Gradient along search dir.  =         -0.08023980161
Functional at step 0        =     -13.58007938261046
Functional at step 1        =     -13.59254688881792
Functional predicted        =     -13.59347699747988
Selected quadratic step     =               0.333939
Conjugate gradients coeff.  =               0.130875
--------------------------- NGWF line search finished --------------------------
                                               

################################################################################
########################### NGWF CG iteration  004 #############################
################################################################################
****** Reciprocal space K.E. preconditioning with k_zero =  3.0000 a0^-1 *******
................................................................................
<<<<<<<<<<<<<< LNV (Original version) density kernel optimisation >>>>>>>>>>>>>>
~~~~~~~~~~~~~~~~~~~~~~~~~~~~~~~~~~~~~~~~~~~~~~~~~~~~~~~~~~~~~~~~~~~~~~~~~~~~~~~~
iter|       energy      |  rms DeltaK |  commutator |LScoef|CGcoef|      Ne    |
 1    -13.59347665113583 0.00000000000 0.00146799624 0.5445  0.000   12.00000000
 2    -13.59373913533077 0.00631794122 0.00034956248 0.5805  0.055   12.00000000
 3    -13.59375452867931 0.00225692573 0.00006009888 0.0000  0.000   12.00000000
Finished density kernel iterations (   3)
Constructing Nonorthogonal Natural Hybrid Orbitals from current NGWFs....  done

           ........................................................
           | *** NGWF optimisation converged ***                  |
           | RMS NGWF gradient =    0.00072353763716              |
           | Criteria satisfied:                                  |
           | -> RMS NGWF gradient lower than set threshold.       |
           ========================================================

================================================================================
           ---------------- ENERGY COMPONENTS (Eh) ----------------
           | Kinetic                    :        9.95954918922069 |
           | Pseudopotential (local)    :      -59.33423069307237 |
           | Pseudopotential (non-local):        1.58502679122079 |
           | Hartree                    :       24.40862644143260 |
           | Exchange-correlation       :       -4.73734494957983 |
           | Ewald                      :       14.52461869209880 |
           | Total                      :      -13.59375452867933 |
           --------------------------------------------------------
           Integrated density           :       11.99999999999990
================================================================================


                    <<<<< CALCULATION SUMMARY >>>>>
|ITER|    RMS GRADIENT   |     TOTAL ENERGY    |   step   |     Epredicted      
   1     0.01367406444513    -12.57015927002200   0.368532    -13.51802388647548
   2     0.00466628611349    -13.49629220701921   0.284735    -13.57841688888756
   3     0.00168810452297    -13.58007938261046   0.333939    -13.59347699747988
   4     0.00072353763716    -13.59375452867931  <-- CG                         
 
<QC>        [NGWF iterations]:        4
<QC>           [total_energy]:      -13.59375453
<QC>                     [F0]:      -13.58007938
<QC>                     [F1]:      -13.59254689
<QC>                     [F2]:        0.00000000
<QC>   [predicted_functional]:      -13.59347700
<QC>           [rms_gradient]:        0.000723537637
<QC>                 [G_init]:       -0.080239801614
<QC>        [quadratic_coeff]:        0.333939
<QC>            [cubic_coeff]:        0.000000
<QC>               [cg_coeff]:        0.130875
<QC>           [trial_length]:        0.245952

************************ NGWF s/p/d/f Character Analysis *********** (n=09) ****
|        Atom   NGWF    :         %s       %p       %d       %f     spilling   |
|   C       1      1    :     34.116   64.360    0.799    0.725     0.62E-02   |
|                  2    :      0.000   99.578    0.117    0.305     0.69E-02   |
|                  3    :     32.584   66.271    0.507    0.638     0.71E-02   |
|                  4    :     32.587   66.260    0.511    0.641     0.71E-02   |
|   H       2      1    :     99.087    0.256    0.457    0.199     0.17E-02   |
|   H       3      1    :     99.083    0.259    0.458    0.200     0.17E-02   |
|   C       4      1    :     32.584   66.265    0.510    0.641     0.72E-02   |
|                  2    :     32.593   66.263    0.507    0.638     0.71E-02   |
|                  3    :     34.113   64.364    0.799    0.725     0.62E-02   |
|                  4    :      0.000   99.578    0.117    0.305     0.69E-02   |
|   H       5      1    :     99.083    0.259    0.458    0.200     0.17E-02   |
|   H       6      1    :     99.088    0.256    0.457    0.199     0.17E-02   |
********************************************************************************


===================== Writing canonical molecular orbitals =====================
| Orbital  Energy (eV)  Norm     |
| HOMO     -6.83007945  1.000000 | Writing "ethene_props_HOMO.grd" ...  done
| LUMO     -0.15828291  1.000000 | Writing "ethene_props_LUMO.grd" ...  done
================================================================================

============== Writing densities of canonical molecular orbitals ===============
| Orbital  Energy (eV)  Norm     |
| HOMO_d   -6.83007945  1.000000 | Writing "ethene_props_HOMO_density.grd" ...  done
| LUMO_d   -0.15828291  1.000000 | Writing "ethene_props_LUMO_density.grd" ...  done
================================================================================

================== Local Density of States (LDOS) calculation ==================
Writing "ethene_props_LDOS.txt" ...  done
================================================================================
 
===================== Density of States (DOS) calculation ======================
Writing "ethene_props_DOS.txt" ...  done
================================================================================
 
Writing bands to file "ethene_props.bands" ... done

=================== Orbital energy and occupancy information ===================

      Total number of orbitals:      12
   Number of occupied orbitals:       6
                 Occupancy sum:       6.000000000
                 HOMO-LUMO gap:       0.245184015 Eh
                 Mid-gap level:      -0.128408798 Eh

                        Orbital | Energy (Eh) | Occupancy
                            1    -0.709172363   1.0000000
                            2    -0.521021382   1.0000000
                            3    -0.420445523   1.0000000
                            4    -0.378436992   1.0000000
                            5    -0.301724918   1.0000000
                            6    -0.251000805   1.0000000
                        .......   --- gap ---   .........
                            7    -0.005816790   0.0000000
                            8     0.131570239   0.0000000
                            9     0.132123900   0.0000000
                           10     0.171212559   0.0000000
                           11     0.314556538   0.0000000
                           12     0.423189975   0.0000000

<QC>     [energy_eigenvalue_1]:     -0.709172362573
<QC>     [energy_eigenvalue_n]:      0.423189974620
<QC>  [occupancy_eigenvalue_1]:      1.000000
<QC>  [occupancy_eigenvalue_n]:      0.000000

================================================================================

------------------------------ TIMING INFORMATION ------------------------------
TOTAL TIME:      82.939s on     4 node(s)

Job completed: 27-05-2011 23:49 (+0100)

Application 646040 resources: utime ~325s, stime ~7s
