 +---------------------------------------------------------------+
 |                                                               |
 |        ####### #     # ####### ####### ####### ######         |
 |        #     # ##    # #          #    #       #     #        |
 |        #     # # #   # #          #    #       #     #        |
 |        #     # #  #  # #####      #    #####   ######         |
 |        #     # #   # # #          #    #       #              |
 |        #     # #    ## #          #    #       #              |
 |        ####### #     # #######    #    ####### #              |
 |                                                               |
 |        Linear-Scaling Ab Initio Total Energy Program          |
 |                                                               |
 |          Release for academic collaborators of ODG            |
 |                                              Version 3.0      |
 |                                                               |
 +---------------------------------------------------------------+
 |                                                               |
 |  Authors:                                                     |
 |  Peter D. Haynes, Nicholas D. M. Hine, Arash. A. Mostofi,     |
 |  Mike C. Payne and Chris-Kriton Skylaris                      |
 |                                                               |
 |  Contributors:                                                |
 |  P. W. Avraam, S. J. Clark, O. Dieguez, S. M. M. Dubois,      |
 |  J. Dziedzic, H. H. Helal, Q. O. Hill, D. D. O`Regan,         |
 |  C. J. Pickard, M. I. J. Probert, L. Ratcliff, M. Robinson    |
 |  and A. Ruiz Serrano                                          |
 |                                                               |
 |                                   Copyright (c) 2004-2011     |
 |                                                               |
 |  Please cite:                                                 |
 |  "Introducing ONETEP: Linear-scaling density functional       |
 |   simulations on parallel computers".                         |
 |   C.-K. Skylaris, P. D. Haynes, A. A. Mostofi, M. C. Payne.   |
 |   J. Chem. Phys. 122 084119 (2005).                           |
 |                                                               |
 |          in all publications arising from your use of ONETEP. |
 |                                                               |
 +---------------------------------------------------------------+
 |                                                               |
 |   ONETEP is based on developments described in the following  |
 |   publications:                                               |
 |                                                               |
 |  "Nonorthogonal generalized Wannier function pseudopotential  |
 |   plane-wave method".                                         |
 |   C.-K. Skylaris, A. A. Mostofi, P. D. Haynes, O. Dieguez,    |
 |   M. C. Payne.                                                |
 |   Phys. Rev. B 66 035119 (2002).                              |
 |                                                               |
 |  "Preconditioned iterative minimization for linear-scaling    |
 |   electronic structure calculations".                         |
 |   A. A. Mostofi, P. D. Haynes, C.-K. Skylaris, M. C. Payne.   |
 |   J. Chem. Phys. 119(17), pp.8842-8848 (2003).                |
 |                                                               |
 |  "Total-energy calculations on a real space grid with         |
 |   localized functions and a plane-wave basis".                |
 |   A. A. Mostofi, C.-K. Skylaris, P. D. Haynes, M. C. Payne.   |
 |   Comput. Phys. Commun. 147, pp.788-802 (2002).               |
 |                                                               |
 |  "Accurate kinetic energy evaluation in electronic structure  |
 |   calculations with localized functions on real space grids"  |
 |   C.-K. Skylaris, A. A. Mostofi, P. D. Haynes, C. J. Pickard, |
 |   M. C. Payne.                                                |
 |   Comput. Phys. Commun. 140, pp.315-322 (2001).               |
 |                                                               |
 +---------------------------------------------------------------+

Job started: 27-05-2011 23:51 (+0100)

Running on     4 processors.

Reading parameters from file "h_bond_class_DEVEL.dat" ...... done
Reading geometry and species blocks from file "h_bond_class_DEVEL.dat" ...
  <species_atomic_set> block not found: NGWF initialisation set to AUTO
    
... done
-------------------------------------------------------------------------------
---------------------------- RUN-TIME PARAMETERS ------------------------------
-------------------------------------------------------------------------------
task                      : SINGLEPOINT *! Type of calculation (String)         
cutoffenergy              : 20.00000000000000       hartree *! Plane wave kinet 
kernelcutoff              : 1000.000000000000 *! Density kernel radius in Bohr  
xcfunctional              : LDA *! Exchange-correlation functional (String)     
libxcxfuncid              : 0 *! Functional identifier for which exchange funct 
libxccfuncid              : 0 *! Functional identifier for which correlation fu 
charge                    : 0.000000000000000 *! The total charge of the system 
spin                      : 0 *! Total spin of system (Integer)                 
spinpolarized             : F *! Switch for spin polarization (Boolean)         
spinpolarised             : F *! Switch for spin polarisation (Boolean)         
constantefield            : 0.0 0.0 0.0 *! Cartesian coordinates of constant el 
fftboxpref                : 0 0 0 *! Preferred FFT box dimensions (String)      
ppdnpoints                : 0 0 0 *! PPD edge length in grid points for each la 
psincspacing              : 0.0 0.0 0.0 *! PSINC grid spacing in atomic units ( 
oldinput                  : F *! Read old-format input file (Boolean)           
develcode                 : *! For development code only (String)               
nnho                      : F *! Initialise NGWFs to nonorthogonal natural hybr 
ngwfhalo                  : -1.000000000000000 *! Halo extension to NGWF radii  
nonscforces               : F *! Include non self-consistent forces due to NGWF 
maxitpalsermano           : 50 *! Maximum number of iterations for Palser-Manol 
maxitpen                  : 3 *! Max number of penalty functional iterations (I 
penparam                  : 4.000000000000000 *! Penalty functional parameter ( 
minitlnv                  : 3 *! Min number of LNV iterations (Integer)         
maxitlnv                  : 8 *! Max number of LNV iterations (Integer)         
maxitlnvcoarse            : 0 *! Max number of low-accuracy LNV iterations (Int 
lnvthresholdorig          : 1.0000000000000001E-009 *! LNV convergence threshol 
lnvcgtype                 : LNV_FLETCHER *! Type of CG coefficient for LNV dens 
lnvcgmaxstep              : 3.000000000000000 *! Maximum length of trial step f 
exactlnv                  : T *! Use original LNV algorithm (Boolean)           
oldlnv                    : F *! Use LNV algorithm backwards compatible pre Dec 
lnvchecktrialsteps        : F *! Check stability of kernel at each trial step d 
kerfix                    : 1 *! Density kernel fixing approach (Integer)       
maxitkernelfix            : 3 *! Maximum # iterations of Penalty Functional ide 
initialdensrealspace      : F *! Construct initial density in real space from a 
kerneldiis                : F *! Use kernel DIIS in the inner loop (Boolean)    
kerneldiistype            : P *! Density mixing method (String)                 
kerneldiismax             : 10 *! Max number of kernels saved during kernel DII 
kerneldiismaxit           : 25 *! Max number of kernel DIIS iterations (Integer 
kerneldiisthres           : 1.0000000000000001E-009 *! Density mixing convergen 
kerneldiisliter           : 5 *! Number of linear mixing iterations (Integer)   
kerneldiiscin             : 0.9000000000000000 *! Coefficient for the input ker 
kerneldiiscriteria        : 1000 *! Density mixing convergence criteria (String 
maxitngwfcg               : 60 *! Max number of NGWF conjugate gradients (CG) i 
ngwfcgtype                : NGWF_FLETCHER *! Type of CG coefficient for NGWF op 
ngwfcgmaxstep             : -8.000000000000000 *! Maximum length of trial step  
eleccgmax                 : 5 *! Number of NGWF iterations to reset CG (Integer 
precondscheme             : TETER *! Recip-space preconditioning scheme (String 
kzero                     : 3.000000000000000 *! KE preconditioning parameter ( 
rprecond                  : 2.000000000000000 *! Radial cut-off for real-space  
precondrecip              : T *! Recip-space KE preconditioning (Boolean)       
precondreal               : F *! Real-space KE preconditioning (Boolean)        
smoothscheme              : NONE *! Smoothing scheme for the NGWF gradients at  
rsmooth                   : 1.500000000000000       bohr *! Radius of the unsha 
ksmooth                   : 5.000000000000000 *! Characteristic wavelength of t 
occmix                    : 0.2500000000000000 *! Mix fraction of occupancy pre 
kernelupdate              : F *! Update density kernel during NGWF line search  
kernelchristoffelupdate   : F *! Update density kernel during NGWF line search  
maxithotelling            : 50 *! Number of Hotelling iteration per NGWF change 
maxresidhotelling         : 9.9999999999999998E-013 *! Max allowed value in Hot 
maxitngwfdiis             : 0 *! Max number of NGWF DIIS steps (Integer)        
ngwfdiissize              : 4 *! Max size of the DIIS iterative subspace (Integ 
ngwfdiisreset             : 8 *! Max number of iteration for the resetting of D 
ngwfdiismaxstep           : 2.000000000000000 *! Max length of trial step for N 
ngwfthresholdorig         : 1.9999999999999999E-006 *! NGWF convergence thresho 
elecenergytol             : -1.0000000000000000E-003  hartree *! Tolerance on t 
elecforcetol              : -1.0000000000000000E-003  ha/bohr *! Tolerance on m 
ngwfmaxgrad               : -2.0000000000000002E-005 *! Maximum permissible val 
deltaeconv                : T *! Use consecutive energy gains as a criterion fo 
locpotintbatchsize        : 10 *! Size of NGWF in fftbox batch for locpot integ 
kineticintbatchsize       : 10 *! Size of NGWF in fftbox batch for kinetic inte 
densitybatchsize          : 10 *! Size of NGWF in fftbox batch for charge densi 
ngwfgradbatchsize         : 10 *! Size of NGWF in fftbox batch for NGWF gradien 
densethreshold            : 0.4000000000000000 *! Threshold for matrix segment  
commsgroupsize            : 4 *! Number of nodes in a group (determines comms e 
ovlpfornonlocal           : F *! Overlap sparsity for nonlocal (Boolean)        
usespacefillingcurve      : T *! Re-arrange atoms according to space-filling cu 
corehamdenskernguess      : T *! Initial guess for density kernel from core Ham 
checkatoms                : T *! Check atoms on top of each other (Boolean)     
locpotscheme              : FULL *! Scheme for evaluating local potential matri 
smoothprojectors          : -0.4000000000000000 *! Halfwidth of Gaussian filter 
smoothlocpspot            : -0.4000000000000000 *! Halfwidth of Gaussian filter 
oddpsincgrid              : F *! Force odd number of points in simcell psinc gr 
evenpsincgrid             : F *! Force even number of points in simcell psinc g 
realspaceprojectors       : F *! Whether to evaluate and store projectors in re 
outputdetail              : VERBOSE *! Level of output detail (String)          
pawoutputdetail           : DEFAULT *! Level of output detail for PAW: BRIEF, N 
timingslevel              : 0 *! Level of timings output: 0(none) 1(nodes summa 
writeparams               : T *! Output runtime parameters at startup (Boolean) 
writeforces               : F *! Write ionic forces (Boolean)                   
writepositions            : T *! Write ionic positions each geometry or MD step 
writexyz                  : F *! Output coordinates in .xyz file (Boolean)      
printqc                   : T *! Print Quality Control information (Boolean)    
cubeformat                : F *! Allow .cube format for plot outputs (Boolean)  
dxformat                  : F *! Allow .dx format for plot outputs (Boolean)    
dxformatcoarse            : F *! Output only points on the coarse grid (Boolean 
dxformatdigits            : 7 *! Number of significant digits in .dx output (In 
grdformat                 : T *! Allow .grd format for plot outputs (Boolean)   
writedensityplot          : T *! Write the charge density in plotting format (B 
writengwfplot             : F *! Write NGWFs in plotting format (Boolean)       
writengwfgradplot         : F *! Write NGWF Gradients in plotting format (Boole 
writengwfradial           : F *! Write NGWFs radial distributions (Boolean)     
writengwfgradradial       : F *! Write NGWFs gradients radial distributions (Bo 
writeradialstep           : 5.0000000000000001E-003  bohr *! Define the grid st 
writeradialsmear          : 1.0000000000000000E-002  bohr *! Define the gaussia 
readdenskern              : F *! Read density kernel restart information (Boole 
writedenskern             : F *! Write density kernel restart information (Bool 
readtightboxngwfs         : F *! Read in universal tightbox NGWFs restart infor 
writetightboxngwfs        : F *! Write in universal tightbox NGWFs restart info 
writeconvergeddkngwfs     : F *! Only write Density Kernel and NGWFs upon conve 
readswngwfs               : F *! Read NGWFs restart information in spherical wa 
writeswngwfs              : F *! Write NGWFs restart information in spherical w 
writemaxl                 : 3 *! Maximum angular momentum number when writing i 
readmaxl                  : 3 *! Maximum angular momentum number when reading i 
extransw                  : 0 *! Maximum number of zeros of the sph Bessel func 
paw                       : F *! Uses a PAW construction to find correct core d 
finegridscale             : 2.000000000000000 *! Ratio of size of fine grid to  
dblgridscale              : 2.000000000000000 *! Ratio of charge density / pote 
augfuncsrecip             : T *! Construct Augmentation functions in recip spac 
dispersion                : 0 *! Select dispersion correction (Integer)         
vdwdcoeff                 : -1.000000000000000 *! Replacement VDW damping coeff 
hubbardmaxiter            : 0 *! Maximum number of DFT+U projector optimisation 
hubbardenergytol          : 1.0000000000000000E-008  hartree *! Energy toleranc 
hubbardconvwin            : 2 *! Energy convergence window when using DFT+U pro 
hubbardprojmixing         : 0.000000000000000 *! Proportion of old Hubbard proj 
hubbardfunctional         : 1 *! DFT+U energy functional to use (Integer)       
hubbardtensorcorr         : 1 *! DFT+U projector tensorial correction to use (I 
hubbardngwfspinthreshold  : 2.0000000000000002E-005 *! NGWF RMS  gradient thres 
coulombcutoffradius       : 0.000000000000000 *! Radius of sphere or cylinder f 
coulombcutofflength       : 0.000000000000000 *! Length of cylinder or width of 
coulombcutofftype         : NONE *! Type of cutoff coulomb interaction: NONE, S 
coulombcutoffwriteint     : F *! Write real-space cutoff Coulomb interaction sc 
pbccorrectioncutoff       : 0.000000000000000 *! alpha*L cutoff parameter for M 
doproperties              : F *! Allow calculation of properties (Boolean)      
numeigenvalues            : 10 *! Number of energy and occupancy eigenvalues to 
homodensplot              : -1 *! Number of squared MOs to plot from HOMO and l 
lumodensplot              : -1 *! Number of squared MOs to plot from LUMO and h 
homoplot                  : 5 *! Number of MOs to plot from HOMO and lower (Int 
lumoplot                  : 5 *! Number of MOs to plot from LUMO and higher (In 
dossmear                  : 3.6749324387552883E-003  hartree *! Half width of s 
ldossmear                 : 3.6749324387552883E-003  hartree *! Lorentzian broa 
popncalculate             : F *! Allow population analysis (Boolean)            
popnbondcutoff            : 5.669178403750646       bohr *! Bond length cutoff  
ngwfanalysis              : F *! Perform NGWF analysis (Boolean)                
polarisationcalculate     : F *! Allow calculation of polarisation (Boolean)    
spreadcalculate           : F *! Calculate spread of NGWFs (Boolean)            
geommodulusest            : 1.7000000000000001E-002  ha/bohr**3 *! The estimate 
geomfrequencyest          : 7.6000000000000000E-003  hartree *! The estimated a 
geomenergytol             : 9.9999999999999995E-007  hartree *! Geometry optimi 
geomforcetol              : 2.0000000000000000E-003  ha/bohr *! Geometry optimi 
geomdisptol               : 5.0000000000000001E-003  bohr *! Geometry optimizat 
geommaxiter               : 50 *! Maximum number of geometry optimization itera 
geomconvergencewin        : 2 *! Geometry optimization convergence tolerance wi 
geomcontinuation          : F *! Read information for continuation of a previou 
geombackupiter            : 1 *! Number of geometry optimisation iterations bet 
geomresetdkngwfsiter      : 6 *! Number of geom iterations between resets of ke 
geomreusedkngwfs          : T *! Re-use density kernel and NGWFs during geometr 
geomprintinvhessian       : F *! Write inverse Hessian to standard output (Bool 
geommethod                : CARTESIAN *! Method for geometry optimization (Stri 
tssearchmethod            : LSTQST *! Specifies method to be used for TS search 
tssearchlstqstprotocol    : LSTMAXIMUM *! Specifies LSTQST protocol (String)    
tssearchqstmaxiter        : 5 *! Specifies maximum number of QST steps (Integer 
tssearchcgmaxiter         : 20 *! Specifies maximum number of CG steps (Integer 
tssearchforcetol          : 5.0000000000000001E-003  ha/bohr *! Force tolerance 
tssearchdisptol           : 1.0000000000000000E-002  bohr *! Displacement toler 
mddeltat                  : 40.00000000000000       aut *! Molecular dynamics t 
mdnumiter                 : 100 *! Maximum number of molecular dynamics iterati 
mdtemperature             : 9.5000000000000000E-004  hartree *! Temperature for 
mdalgorithm               : LEAPFROGVERLET *! Integration algorithm for molecul 
mdthermostat              : NONE *! Thermostat for molecular dynamics (String)  
mdcollisionfrequency      : 0.1520000000000000       hartree *! Collision frequ 
mixdenskern               : 0 *! Number of coefficients used to build new guess 
mixngwfs                  : 0 *! Number of coefficients used to build new guess 
condreaddenskern          : F *! Read in conduction density kernel (Boolean)    
condreadtightboxngwfs     : F *! Read in universal tightbox conduction NGWFs (B 
condfixedshift            : F *! Fixed projected conduction Hamiltonian shift ( 
condcalcmaxeigen          : T *! Calculate maximum conduction Hamiltonian eigen 
condnumstates             : 0 *! Number of conduction states to be optimised fo 
condkernelcutoff          : 1000.000000000000 *! Conduction density kernel radi 
condinitshift             : 0.000000000000000 *! Initial shifting factor for pr 
condshiftbuffer           : 0.1000000000000000 *! Additional buffer for updatin 
condnumextrastates        : 0 *! Number of extra conduction states for initial  
condnumextraits           : 0 *! Number of NGWF iterations with extra conductio 
condplotjointorbitals     : T *! Plot orbitals in the joint basis following a c 
condplotvcorbitals        : T *! Plot orbitals in the val and cond NGWF basis s 
condcalcopticalspectra    : F *! Calculate matrix elements for optical absorpti 
condspeccalcmommatels     : T *! Calculate momentum matrix elements (default tr 
condspeccalcnonloccomm    : T *! Calculate nonlocal commutator for momentum mat 
condspeccontderiv         : T *! Calculate non-local commuator using continuous 
condspecnonloccommshift   : 1.0000000000000000E-004 *! Finite difference shift  
bskpointpathspacing       : 0.1889727000000000       1/bohr *! K-point spacing  
bsnumeigenvalues          : -1 *! Num of energy and occ. eigenvalues to print b 
bsunfold                  : 0 0 0 *! Number of times to unfold Brillouin zone i 
bsmethod                  : TB *! Method to use: 'KP' or 'TB' (String)          
dotddft                   : F *! Allow Time-Dependent DFT calculation (Boolean) 
tddftmaximumenergy        : 1.000000000000000       hartree *! Desired maximum  
tddftresolution           : 1.0000000000000000E-003  hartree *! Desired resolut 
tddftpropagationmethod    : CRANKNICHOLSON *! Method used to integrate von Neum 
tddftsparsitylevel        : 0 *! Matrix sparsity when computing propagators e.g 
tddfttammdancoff          : F *! Invoke Tamm-Dancoff decoupling approximation ( 
tddftdipolekickstrength   : 0.0 0.0 0.0 *! Maximum allowed phase shift in TDDFT 
tddftxcfunctional         : LDA *! Exchange-correlation functional for TDDFT (S 
tddfthamiltonianmixing    : 0 *! Order of polynomial extrapolation to H(t + hal 
tddftdamping              : 0.000000000000000       hartree *! Energy smearing  
tddftenforcedidempotency  : F *! Project out at each timestep that part of chan 
tddftmaxithotelling       : 50 *! Number of Hotelling iteration per propagation 
tddftmaxresidhotelling    : 1.0000000000000001E-018 *! Max allowed value in Hot 
tddftinvoverlapexact      : T *! Renew inverse overlap with O N^3 algorithm bef 
isimplicitsolvent         : F *! Use implicit solvent? (Boolean)                
issmearedionrep           : F *! Implicit solvent: use smeared ions for electro 
isincludecavitation       : F *! Implicit solvent: include cavitation energy (B 
isdensitythreshold        : 7.7999999999999999E-004 *! Implicit solvent: rho_0  
issolvationbeta           : 1.300000000000000 *! Implicit solvent: beta paramet 
isbulkpermittivity        : 1.000000000000000 *! Implicit solvent: eps_inf para 
ismultigriddefecterrortol : 1.0000000000000000E-002 *! Implicit solvent: stop c 
ismultigriderrortol       : 1.0000000000000001E-005 *! Implicit solvent: stop c 
issmearedionwidth         : 0.8000000000000000 *! Implicit solvent: Width of Ga 
issurfacethickness        : 2.0000000000000001E-004 *! Implicit solvent: thickn 
issolventsurfacetension   : 4.7623999999999997E-005  ha/bohr**2 *! Implicit sol 
ismultigridmaxiters       : 100 *! Implicit solvent: max number of iterations i 
ismultigridnlevels        : 4 *! Implicit solvent: number of levels in multigri 
isdiscretizationorder     : 8 *! Implicit solvent: discretization order (2nd, 4 
isbccoarseness            : 5 *! Implicit solvent: controls boundary condition  
isbcsurfacecoarseness     : 1 *! Implicit solvent: controls boundary condition  
ischecksolvenergygrad     : F *! Implicit solvent: sanity check the energy grad 
issolvationmethod         : DIRECT *! Implicit solvent: direct or corrective me 
isdielectricmodel         : FIX_INITIAL *! Implicit solvent: how the cavity is  
isdielectricfunction      : FGF *! Implicit solvent: how the cavity is determin 
issolvationoutputdetail   : NONE *! Implicit solvent: controls extra output (St 
openbcionion              : F *! Force open BCs in ion-ion energy (Boolean)     
openbchartree             : F *! Force open BCs in Hartree potential (Boolean)  
openbcpspot               : F *! Force open BCs in local pseudopotential (Boole 
openbcpspotfinetunenptsx  : 100000 *! Open BCs in local pseudo, npts_x paramete 
openbcpspotfinetunealpha  : 0.3000000000000000 *! Open BCs in local pseudo, alp 
openbcpspotfinetunef      : -1 *! Open BCs in local pseudo, fineness parameter  
%block positionsabs       : *! Cartesian positions for each atom (Block)        
O     24.887507   23.896975   22.647313                                         
C     27.731659   23.667449   22.643306                                         
H     28.655157   21.721170   22.637547                                         
H     28.955467   25.440371   22.646039                                         
%endblock positionsabs    : *! Cartesian positions for each atom (Block)        
%block latticecart        : *! The simulation cell lattice vectors (Block)      
51.00     0.00     0.00                                                         
0.00    52.00     0.00                                                          
0.00     0.00    46.20                                                          
%endblock latticecart     : *! The simulation cell lattice vectors (Block)      
%block species            : *! Species information (symbol, atomic number, numb 
O    O    8    4    6.3                                                         
C    C    6    4    6.3                                                         
H    H    1    1    6.0                                                         
%endblock species         : *! Species information (symbol, atomic number, numb 
%block speciespot         : *! Pseudopotential name for each species (Block)    
O    "../../pseudo/oxygen.recpot"                                               
C    "../../pseudo/carbon.recpot"                                               
H    "../../pseudo/hydrogen_coul.recpot"                                        
%endblock speciespot      : *! Pseudopotential name for each species (Block)    
%block classicalinfo      : *! Include classical atoms Coulomb interaction in t 
O     19.766101   21.820471   22.648599   -0.3                                  
H     17.687651   22.103070   22.651801    0.12                                 
H     20.725313   23.685785   22.651874    0.17                                 
%endblock classicalinfo   : *! Include classical atoms Coulomb interaction in t 
-------------------------------------------------------------------------------
-------------------------------------------------------------------------------

WARNING in pseudopotentials_read_species: string "GGA" found in pseudopotential
file "../../pseudo/carbon.recpot", yet xc_functional = "LDA".

<<<<<<<<<<<<<<<<<<<<<<<<< Pseudopotential information >>>>>>>>>>>>>>>>>>>>>>>>>
File: ../../pseudo/oxygen.recpot [ 2001 points up to Gmax=  52.9 (1/bohr)]
  Atomic number:  8;  ionic charge:  6.000000
    Shell 1: l = 0; rc = 1.31 bohr
File: ../../pseudo/carbon.recpot [ 2001 points up to Gmax=  52.9 (1/bohr)]
  Atomic number:  6;  ionic charge:  4.000000
    Shell 1: l = 0; rc = 1.48 bohr
File: ../../pseudo/hydrogen_coul.recpot [ 2001 points up to Gmax=  52.9 (1/bohr)]
  Atomic number:  1;  ionic charge:  1.000000
    Local potential
<<<<<<<<<<<<<<<<<<<<<<<<<<<<<<<<<<<<<<< >>>>>>>>>>>>>>>>>>>>>>>>>>>>>>>>>>>>>>>

------------------------- Atom counting information ---------------------------
Symbol    Natoms    Nngwfs    Nprojs
  O          1         4         1
  C          1         4         1
  H          2         2         0
.......   ......    ......    ......
Totals:      4        10         2
-------------------------------------------------------------------------------

Determining parallel strategy ...
... using space-filling curve
... NGWF load balancing: max      4;  min      1;  average      3
... Projector load balancing: max      1;  min      0;  average      1
... done

Calculating Ewald energy ...
              Ewald: real-space energy =      12.658282
        Ewald: reciprocal-space energy =       0.650085
         Ewald: (sum_charge)**2 Energy =       0.756549
         Ewald: (sum_charge**2) Energy =       1.507448
                          Ewald Energy =      11.044370
... FFT-box specified

Basis initialisation ...
... Atom positions lie inside simulation cell
... NGWF spheres initialised
... Projector spheres initialised
... NGWF tight boxes initialised
... NGWF basis size (local,global):       3292      9552
... Tight-boxes gathered
... done

============================== PSINC grid sizes ================================
                      Simulation cell:   84 x  84 x  75
                              FFT-box:   63 x  63 x  63
                                  PPD:    6 x   6 x   5
Grid space d1=  0.607142857143a0 (KE cutoff=  20.60735Eh = 560.75462eV)
Grid space d2=  0.619047619048a0 (KE cutoff=  19.82238Eh = 539.39452eV)
Grid space d3=  0.616000000000a0 (KE cutoff=  20.01901Eh = 544.74496eV)
================================================================================

********************** Fourier parallelisation information *********************
       Coarse grid (whole simulation cell) dimensions:     84    84    75

                 Real-space grid ('12' slabs):
                   Node    0:   18 (from    1 to   18)
                   Node    1:   19 (from   19 to   37)
                   Node    2:   19 (from   38 to   56)
                   Node    3:   19 (from   57 to   75)

                 Reciprocal-space grid ('23' slabs):
                   Node    0:   10 (from    1 to   10)
                   Node    1:   11 (from   11 to   21)
                   Node    2:   11 (from   22 to   32)
                   Node    3:   11 (from   33 to   43)
********************************************************************************

********************** Fourier parallelisation information *********************
       Double grid (whole simulation cell) dimensions:    168   168   150

                 Real-space grid ('12' slabs):
                   Node    0:   37 (from    1 to   37)
                   Node    1:   38 (from   38 to   75)
                   Node    2:   38 (from   76 to  113)
                   Node    3:   37 (from  114 to  150)

                 Reciprocal-space grid ('23' slabs):
                   Node    0:   21 (from    1 to   21)
                   Node    1:   21 (from   22 to   42)
                   Node    2:   22 (from   43 to   64)
                   Node    3:   21 (from   65 to   85)
********************************************************************************

=========================== Sparse matrix information ==========================
                        Overlap matrix filling: 100.00%
                        Density kernel filling: 100.00%
              NGWF-Proj overlap matrix filling: 100.00%
                    Hamiltonian matrix filling: 100.00%
                  NGWF diagonal matrix filling:  34.00%
                             KS matrix filling: 100.00% 
                           KSKS matrix filling: 100.00% 
================================================================================

Sparse matrix initialisation ... done
NGWF initialisation ...... done

============ Calculation of NGWF S^-1 using Hotelling algorithm ================ 
         Iteration  |  Frobenius norm and Maximum abs value    (of I-S*S_n^-1)   
               1       0.26857028E+01     0.97818808E+00
               2       0.24992495E+01     0.95859252E+00
               3       0.23522645E+01     0.92421861E+00
               4       0.22187566E+01     0.86226903E+00
               5       0.20228991E+01     0.77061225E+00
               6       0.17194571E+01     0.65203022E+00
               7       0.13231800E+01     0.49843196E+00
               8       0.88972606E+00     0.34059555E+00
               9       0.46130225E+00     0.19209512E+00
              10       0.13950492E+00     0.65926871E-01
              11       0.15051506E-01     0.78690627E-02
              12       0.20768524E-03     0.11299450E-03
              13       0.42762670E-07     0.23361745E-07
              14       0.23978327E-14     0.11102230E-14
================================================================================

Calculating structure factor for      3 classical atoms ...... done
Calculating embedding potential with Gauss exp= 7.70164  ...... done
Up spin density kernel initialisation ... 
======= Optimisation of K by Palser-Manolopoulos canonical purification ======== 
         Iteration  |  Band structure energy |    c_n   
               1          -3.10446324855696    0.5510592
               2          -3.21969112094720    0.5472422
               3          -3.37070655421602    0.5421452
               4          -3.54988323512222    0.5395593
               5          -3.72674820256318    0.5444469
               6          -3.85960310793367    0.5381983
               7          -3.94218171908930    0.5006529
               8          -3.99174699159103    0.4794988
               9          -4.00987074398270    0.4947322
              10          -4.01471223077392    0.4997965
              11          -4.01504855561344    0.4999997
              12          -4.01505005780089    0.5000077
              13          -4.01505005783114    0.9941011
              14          -4.01505005783114    0.9962249
Final occupancy bounds: [    0.00000000000000:    1.00000000000000]
Closest occupancy to 0.5:     1.00000000000000
================================================================================
... done
   Initial electron number for spin 1:      12.00000000
     Final electron number for spin 1:      12.00000000
................................................................................
<<<<<<<<<<<<<<<< Penalty functional density kernel optimisation >>>>>>>>>>>>>>>>
~~~~~~~~~~~~~~~~~~~~~~~~~~~~~~~~~~~~~~~~~~~~~~~~~~~~~~~~~~~~~~~~~~~~~~~~~~~~~~~~
iter|       energy      |   rms grad  |  commutator |LScoef|CGcoef|      Ne    |
      Q0=E0+P0:     -20.581214979425=    -20.581214979425+      0.000000000000
    Trial step:       1.000000000000
            G0:      -5.940512096328
WARNING: minimum value of charge density: -0.0043
      Q1=E1+P1:      47.304335402815=    -23.800612545469+     71.104947948284
Quadratic term:     -73.826062478568
   Linear term:      -5.940512096328
  Optimal step:       0.040233163580
 Predicted min:     -20.700717776885
    !!! Quadratic minimum step length accepted !!!
 1    -20.58121497942480 0.24373165770 0.09061701678 0.0402  0.000   12.00000000
      Q0=E0+P0:     -20.783145458948=    -20.815802387073+      0.032656928125
    Trial step:       0.200582061960
            G0:      -0.354561582747
      Q1=E1+P1:     -20.849211016370=    -20.887158688058+      0.037947671687
Quadratic term:      -0.005053135937
   Linear term:      -0.071118693359
  Optimal step:       1.411513002659
 Predicted min:     -21.033379601093
    !!! Quadratic minimum step length accepted !!!
 2    -20.81580238707289 0.16966726189 0.08440952956 1.4115 -0.623   12.00000000
      Q0=E0+P0:     -20.882903287823=    -21.313316133205+      0.430412845382
    Trial step:       0.532094153845
WARNING: internal_polak_cg_coeff = 11.78660
WARNING: setting internal_polak_cg_coeff to zero
            G0:      -9.524188525015
      Q1=E1+P1:      -7.783426197935=    -17.355310478036+      9.571884280101
Quadratic term:     -18.167242124166
   Linear term:      -5.067765034278
  Optimal step:       0.074214020196
 Predicted min:     -21.236317447593
    !!! Quadratic minimum step length accepted !!!
 3    -21.31331613320497 0.30861284038 0.08637745522 0.0742  0.000   12.00000000

======================== Penalty functional minimisation =======================
   Final total energy     :     -21.347025125727
   Final penalty energy   :       0.144832029269
   RMS occupancy error    :       0.060173
   Occupancy bounds       : [-0.072, 1.101]
================================================================================

Finished density kernel iterations (   3)

################################################################################
########################### NGWF CG iteration  001 #############################
################################################################################
****** Reciprocal space K.E. preconditioning with k_zero =  3.0000 a0^-1 *******
   Initial electron number for spin 1:      12.00000000
     Final electron number for spin 1:      12.00000000

=================== Penalty functional idempotency correction ==================
 RMS occupancy error at iteration   1:  0.060173 (step -0.4087 Ne1=     12.0000)
 RMS occupancy error at iteration   2:  0.004432 (step -0.5057 Ne1=     12.0000)
 RMS occupancy error at iteration   3:  0.000069 (step -0.5001 Ne1=     12.0000)
            Final RMS occupancy error   :  0.000000 (Ne1=     12.0000)
               Final occupancy bounds   : [  0.0000,  1.0000]
================================================================================

................................................................................
<<<<<<<<<<<<<< LNV (Original version) density kernel optimisation >>>>>>>>>>>>>>
~~~~~~~~~~~~~~~~~~~~~~~~~~~~~~~~~~~~~~~~~~~~~~~~~~~~~~~~~~~~~~~~~~~~~~~~~~~~~~~~
iter|       energy      |  rms DeltaK |  commutator |LScoef|CGcoef|      Ne    |
      ideal mu1:      -0.487914824296
             Q0:     -20.976385245463
             G0:      -0.202066865809
   RMS gradient:       0.044951848217
     Trial step:       0.500000000000
             Q1:     -21.037283301135
 Quadratic coef:       0.040135377232
 Linear coef   :      -0.101033432904
           Qmin:     -21.039968518303
Quadratic minimum step length (  0.629329035077) accepted
    Initial Ne1:      11.99999976
      Final Ne1:      12.00000000

=================== Penalty functional idempotency correction ==================
 RMS occupancy error at iteration   1:  0.011948 (step -0.4719 Ne1=     12.0000)
 RMS occupancy error at iteration   2:  0.000149 (step -0.4998 Ne1=     12.0000)
            Final RMS occupancy error   :  0.000000 (Ne1=     12.0000)
               Final occupancy bounds   : [  0.0000,  1.0000]
================================================================================

 1    -20.97638524546296 0.00000000000 0.03993391864 0.6293  0.000   12.00000000
      ideal mu1:      -0.539575302121
             Q0:     -21.039252284342
             G0:      -0.028924210762
   RMS gradient:       0.017452370497
     Trial step:       0.560949656867
             Q1:     -21.050982144629
 Quadratic coef:       0.004495165815
 Linear coef   :      -0.016225026102
           Qmin:     -21.053893094206
Quadratic minimum step length (  1.012356740443) accepted
    Initial Ne1:      11.99999593
      Final Ne1:      12.00000000

=================== Penalty functional idempotency correction ==================
 RMS occupancy error at iteration   1:  0.009866 (step -0.4769 Ne1=     12.0000)
 RMS occupancy error at iteration   2:  0.000104 (step -0.4999 Ne1=     12.0000)
            Final RMS occupancy error   :  0.000000 (Ne1=     12.0000)
               Final occupancy bounds   : [  0.0000,  1.0000]
================================================================================

 2    -21.03925228434228 0.07881262841 0.01458527670 1.0124  0.151   12.00000000
      ideal mu1:      -0.559106788592
 3    -21.05435494222086 0.04443192896 0.00950664475 0.0000  0.000   12.00000000
Finished density kernel iterations (   3)

           ........................................................
           | *** NGWF optimisation not converged ***              |
           | RMS NGWF gradient =    0.01019923943213              |
           | Criteria not satisfied:                              |
           | -> RMS NGWF gradient higher than set threshold.      |
           ========================================================

------------------------------- NGWF line search -------------------------------
============ Calculation of NGWF S^-1 using Hotelling algorithm ================ 
         Iteration  |  Frobenius norm and Maximum abs value    (of I-S*S_n^-1)   
               1       0.15027829E-01     0.76018170E-02
               2       0.81222884E-04     0.57121892E-04
               3       0.39620257E-08     0.32512416E-08
               4       0.16061265E-14     0.72164497E-15
================================================================================
============ Calculation of NGWF S^-1 using Hotelling algorithm ================ 
         Iteration  |  Frobenius norm and Maximum abs value    (of I-S*S_n^-1)   
               1       0.79846672E-01     0.31514522E-01
               2       0.21194959E-02     0.91597146E-03
               3       0.22099391E-05     0.11985432E-05
               4       0.34292079E-11     0.19950708E-11
               5       0.11587807E-14     0.44408921E-15
================================================================================
RMS gradient                =       0.01019923943213
Trial step length           =               0.122474
Gradient along search dir.  =         -4.57780551113
Functional at step 0        =     -21.05435494222086
Functional at step 1        =     -21.55807531123290
Functional predicted        =     -22.43441463540474
Selected quadratic step     =               0.602935
Conjugate gradients coeff.  =               0.000000
--------------------------- NGWF line search finished --------------------------
                                               

################################################################################
########################### NGWF CG iteration  002 #############################
################################################################################
****** Reciprocal space K.E. preconditioning with k_zero =  3.0000 a0^-1 *******
   Initial electron number for spin 1:      12.23836763
     Final electron number for spin 1:      12.00000000

=================== Penalty functional idempotency correction ==================
 RMS occupancy error at iteration   1:  0.011778 (step -0.4786 Ne1=     12.0000)
 RMS occupancy error at iteration   2:  0.000176 (step -0.5001 Ne1=     12.0000)
            Final RMS occupancy error   :  0.000000 (Ne1=     12.0000)
               Final occupancy bounds   : [  0.0000,  1.0000]
================================================================================

................................................................................
<<<<<<<<<<<<<< LNV (Original version) density kernel optimisation >>>>>>>>>>>>>>
~~~~~~~~~~~~~~~~~~~~~~~~~~~~~~~~~~~~~~~~~~~~~~~~~~~~~~~~~~~~~~~~~~~~~~~~~~~~~~~~
iter|       energy      |  rms DeltaK |  commutator |LScoef|CGcoef|      Ne    |
      ideal mu1:      -0.466693980222
             Q0:     -22.326318948148
             G0:      -0.084712323005
   RMS gradient:       0.029105381462
     Trial step:       0.753578905077
             Q1:     -22.344100430568
 Quadratic coef:       0.046055937196
 Linear coef   :      -0.063837419616
           Qmin:     -22.348439962241
Quadratic minimum step length (  0.522262011221) accepted
    Initial Ne1:      11.99999809
      Final Ne1:      12.00000000

=================== Penalty functional idempotency correction ==================
 RMS occupancy error at iteration   1:  0.004142 (step -0.4871 Ne1=     12.0000)
 RMS occupancy error at iteration   2:  0.000017 (step -0.5000 Ne1=     12.0000)
            Final RMS occupancy error   :  0.000000 (Ne1=     12.0000)
               Final occupancy bounds   : [  0.0000,  1.0000]
================================================================================

 1    -22.32631894814763 0.00000000000 0.01898431113 0.5223  0.000   12.00000000
      ideal mu1:      -0.472318731940
             Q0:     -22.348835165322
             G0:      -0.005955749719
   RMS gradient:       0.007587454022
     Trial step:       0.627348096817
             Q1:     -22.350919417231
 Quadratic coef:       0.001652076342
 Linear coef   :      -0.003736328251
           Qmin:     -22.350947681016
Quadratic minimum step length (  0.709403784166) accepted
    Initial Ne1:      11.99999978
      Final Ne1:      12.00000000

=================== Penalty functional idempotency correction ==================
 RMS occupancy error at iteration   1:  0.001042 (step -0.4972 Ne1=     12.0000)
 RMS occupancy error at iteration   2:  0.000002 (step -0.5000 Ne1=     12.0000)
            Final RMS occupancy error   :  0.000000 (Ne1=     12.0000)
               Final occupancy bounds   : [  0.0000,  1.0000]
================================================================================

 2    -22.34883516532208 0.05533186327 0.00666885049 0.7094  0.068   12.00000000
      ideal mu1:      -0.465188794610
 3    -22.35097350905669 0.01506514788 0.00381544912 0.0000  0.000   12.00000000
Finished density kernel iterations (   3)

           ........................................................
           | *** NGWF optimisation not converged ***              |
           | RMS NGWF gradient =    0.00410055150240              |
           | Criteria not satisfied:                              |
           | -> RMS NGWF gradient higher than set threshold.      |
           ========================================================

------------------------------- NGWF line search -------------------------------
============ Calculation of NGWF S^-1 using Hotelling algorithm ================ 
         Iteration  |  Frobenius norm and Maximum abs value    (of I-S*S_n^-1)   
               1       0.26139359E-01     0.14893616E-01
               2       0.28834992E-03     0.21110539E-03
               3       0.60025209E-07     0.44251950E-07
               4       0.24286250E-14     0.15543122E-14
================================================================================
============ Calculation of NGWF S^-1 using Hotelling algorithm ================ 
         Iteration  |  Frobenius norm and Maximum abs value    (of I-S*S_n^-1)   
               1       0.17919614E-01     0.11502730E-01
               2       0.16659005E-03     0.12827417E-03
               3       0.20947092E-07     0.16105706E-07
               4       0.18884825E-14     0.88817842E-15
================================================================================
RMS gradient                =       0.00410055150240
Trial step length           =               0.271743
Gradient along search dir.  =         -0.67210859072
Functional at step 0        =     -22.35097350905669
Functional at step 1        =     -22.47442595035472
Functional predicted        =     -22.49186981645016
Selected quadratic step     =               0.419266
Conjugate gradients coeff.  =               0.161640
--------------------------- NGWF line search finished --------------------------
                                               

################################################################################
########################### NGWF CG iteration  003 #############################
################################################################################
****** Reciprocal space K.E. preconditioning with k_zero =  3.0000 a0^-1 *******
   Initial electron number for spin 1:      12.14710839
     Final electron number for spin 1:      12.00000000

=================== Penalty functional idempotency correction ==================
 RMS occupancy error at iteration   1:  0.007718 (step -0.4805 Ne1=     12.0000)
 RMS occupancy error at iteration   2:  0.000119 (step -0.5000 Ne1=     12.0000)
            Final RMS occupancy error   :  0.000000 (Ne1=     12.0000)
               Final occupancy bounds   : [  0.0000,  1.0000]
================================================================================

................................................................................
<<<<<<<<<<<<<< LNV (Original version) density kernel optimisation >>>>>>>>>>>>>>
~~~~~~~~~~~~~~~~~~~~~~~~~~~~~~~~~~~~~~~~~~~~~~~~~~~~~~~~~~~~~~~~~~~~~~~~~~~~~~~~
iter|       energy      |  rms DeltaK |  commutator |LScoef|CGcoef|      Ne    |
      ideal mu1:      -0.466769523964
             Q0:     -22.493206752158
             G0:      -0.007725926533
   RMS gradient:       0.008789724986
     Trial step:       0.667115517636
             Q1:     -22.494050471868
 Quadratic coef:       0.004310365768
 Linear coef   :      -0.005154085478
           Qmin:     -22.494747491306
Quadratic minimum step length (  0.398849028925) accepted
    Initial Ne1:      11.99999942
      Final Ne1:      12.00000000

=================== Penalty functional idempotency correction ==================
 RMS occupancy error at iteration   1:  0.000175 (step -0.4995 Ne1=     12.0000)
            Final RMS occupancy error   :  0.000000 (Ne1=     12.0000)
               Final occupancy bounds   : [  0.0000,  1.0000]
================================================================================

 1    -22.49320675215797 0.00000000000 0.00699184680 0.3988  0.000   12.00000000
      ideal mu1:      -0.466279048221
             Q0:     -22.494744320194
             G0:      -0.000766540520
   RMS gradient:       0.002769195577
     Trial step:       0.515827855384
             Q1:     -22.495004347389
 Quadratic coef:       0.000135375757
 Linear coef   :      -0.000395402953
           Qmin:     -22.495033041562
Quadratic minimum step length (  0.753310126061) accepted
    Initial Ne1:      12.00000100
      Final Ne1:      12.00000000

=================== Penalty functional idempotency correction ==================
 RMS occupancy error at iteration   1:  0.000116 (step -0.4997 Ne1=     12.0000)
            Final RMS occupancy error   :  0.000000 (Ne1=     12.0000)
               Final occupancy bounds   : [  0.0000,  1.0000]
================================================================================

 2    -22.49474432019385 0.01026656979 0.00252943890 0.7533  0.099   12.00000000
      ideal mu1:      -0.468828591298
 3    -22.49503282049465 0.00646074150 0.00133388203 0.0000  0.000   12.00000000
Finished density kernel iterations (   3)

           ........................................................
           | *** NGWF optimisation not converged ***              |
           | RMS NGWF gradient =    0.00136728261547              |
           | Criteria not satisfied:                              |
           | -> RMS NGWF gradient higher than set threshold.      |
           ========================================================

------------------------------- NGWF line search -------------------------------
============ Calculation of NGWF S^-1 using Hotelling algorithm ================ 
         Iteration  |  Frobenius norm and Maximum abs value    (of I-S*S_n^-1)   
               1       0.16823974E-01     0.84111967E-02
               2       0.73865159E-04     0.45162228E-04
               3       0.30587444E-08     0.23316471E-08
               4       0.14474053E-14     0.44408921E-15
================================================================================
============ Calculation of NGWF S^-1 using Hotelling algorithm ================ 
         Iteration  |  Frobenius norm and Maximum abs value    (of I-S*S_n^-1)   
               1       0.85141727E-02     0.40111839E-02
               2       0.20493532E-04     0.12098906E-04
               3       0.23282831E-09     0.16998858E-09
               4       0.14707408E-14     0.88817842E-15
================================================================================
RMS gradient                =       0.00136728261547
Trial step length           =               0.337539
Gradient along search dir.  =         -0.08424969815
Functional at step 0        =     -22.49503282049465
Functional at step 1        =     -22.51391868737872
Functional predicted        =     -22.51619908254171
Selected quadratic step     =               0.502465
Conjugate gradients coeff.  =               0.111181
--------------------------- NGWF line search finished --------------------------
                                               

################################################################################
########################### NGWF CG iteration  004 #############################
################################################################################
****** Reciprocal space K.E. preconditioning with k_zero =  3.0000 a0^-1 *******
   Initial electron number for spin 1:      12.07393032
     Final electron number for spin 1:      12.00000000

=================== Penalty functional idempotency correction ==================
 RMS occupancy error at iteration   1:  0.003693 (step -0.4929 Ne1=     12.0000)
 RMS occupancy error at iteration   2:  0.000019 (step -0.5000 Ne1=     12.0000)
            Final RMS occupancy error   :  0.000000 (Ne1=     12.0000)
               Final occupancy bounds   : [  0.0000,  1.0000]
================================================================================

................................................................................
<<<<<<<<<<<<<< LNV (Original version) density kernel optimisation >>>>>>>>>>>>>>
~~~~~~~~~~~~~~~~~~~~~~~~~~~~~~~~~~~~~~~~~~~~~~~~~~~~~~~~~~~~~~~~~~~~~~~~~~~~~~~~
iter|       energy      |  rms DeltaK |  commutator |LScoef|CGcoef|      Ne    |
      ideal mu1:      -0.473565832787
             Q0:     -22.516067197822
             G0:      -0.001339640588
   RMS gradient:       0.003660110091
     Trial step:       0.623360527115
             Q1:     -22.516166333843
 Quadratic coef:       0.000735943042
 Linear coef   :      -0.000835079063
           Qmin:     -22.516304090150
Quadratic minimum step length (  0.353665497812) accepted
    Initial Ne1:      11.99999997
      Final Ne1:      12.00000000

=================== Penalty functional idempotency correction ==================
 RMS occupancy error at iteration   1:  0.000029 (step -0.4999 Ne1=     12.0000)
            Final RMS occupancy error   :  0.000000 (Ne1=     12.0000)
               Final occupancy bounds   : [  0.0000,  1.0000]
================================================================================

 1    -22.51606719782192 0.00000000000 0.00299431086 0.3537  0.000   12.00000000
      ideal mu1:      -0.471623191091
             Q0:     -22.516303697230
             G0:      -0.000073533462
   RMS gradient:       0.000857810930
     Trial step:       0.469532864812
             Q1:     -22.516329363780
 Quadratic coef:       0.000008859827
 Linear coef   :      -0.000034526377
           Qmin:     -22.516337334193
Quadratic minimum step length (  0.914874977858) accepted
    Initial Ne1:      12.00000004
      Final Ne1:      12.00000000

=================== Penalty functional idempotency correction ==================
 RMS occupancy error at iteration   1:  0.000015 (step -0.5000 Ne1=     12.0000)
            Final RMS occupancy error   :  0.000000 (Ne1=     12.0000)
               Final occupancy bounds   : [  0.0000,  1.0000]
================================================================================

 2    -22.51630369723014 0.00402415247 0.00088292767 0.9149  0.055   12.00000000
      ideal mu1:      -0.471698793658
 3    -22.51633733120021 0.00208176501 0.00038433751 0.0000  0.000   12.00000000
Finished density kernel iterations (   3)

           ........................................................
           | *** NGWF optimisation not converged ***              |
           | RMS NGWF gradient =    0.00061067117302              |
           | Criteria not satisfied:                              |
           | -> RMS NGWF gradient higher than set threshold.      |
           ========================================================

------------------------------- NGWF line search -------------------------------
============ Calculation of NGWF S^-1 using Hotelling algorithm ================ 
         Iteration  |  Frobenius norm and Maximum abs value    (of I-S*S_n^-1)   
               1       0.12395092E-01     0.55424414E-02
               2       0.54566953E-04     0.28538756E-04
               3       0.17040497E-08     0.93435737E-09
               4       0.18357289E-14     0.77715612E-15
================================================================================
============ Calculation of NGWF S^-1 using Hotelling algorithm ================ 
         Iteration  |  Frobenius norm and Maximum abs value    (of I-S*S_n^-1)   
               1       0.40112383E-02     0.17116825E-02
               2       0.53871389E-05     0.28050485E-05
               3       0.15395066E-10     0.85140783E-11
               4       0.14732473E-14     0.55511151E-15
================================================================================
RMS gradient                =       0.00061067117302
Trial step length           =               0.411827
Gradient along search dir.  =         -0.01650700371
Functional at step 0        =     -22.51633733120021
Functional at step 1        =     -22.52060374674745
Functional predicted        =     -22.52090094097661
Selected quadratic step     =               0.552930
Conjugate gradients coeff.  =               0.199479
--------------------------- NGWF line search finished --------------------------
                                               

################################################################################
########################### NGWF CG iteration  005 #############################
################################################################################
****** Reciprocal space K.E. preconditioning with k_zero =  3.0000 a0^-1 *******
   Initial electron number for spin 1:      12.01996732
     Final electron number for spin 1:      12.00000000

=================== Penalty functional idempotency correction ==================
 RMS occupancy error at iteration   1:  0.001100 (step -0.4978 Ne1=     12.0000)
 RMS occupancy error at iteration   2:  0.000002 (step -0.5000 Ne1=     12.0000)
            Final RMS occupancy error   :  0.000000 (Ne1=     12.0000)
               Final occupancy bounds   : [  0.0000,  1.0000]
================================================================================

................................................................................
<<<<<<<<<<<<<< LNV (Original version) density kernel optimisation >>>>>>>>>>>>>>
~~~~~~~~~~~~~~~~~~~~~~~~~~~~~~~~~~~~~~~~~~~~~~~~~~~~~~~~~~~~~~~~~~~~~~~~~~~~~~~~
iter|       energy      |  rms DeltaK |  commutator |LScoef|CGcoef|      Ne    |
      ideal mu1:      -0.471451891363
             Q0:     -22.520891683104
             G0:      -0.000168936936
   RMS gradient:       0.001299757425
     Trial step:       0.655411221523
             Q1:     -22.520902579446
 Quadratic coef:       0.000099826822
 Linear coef   :      -0.000110723164
           Qmin:     -22.520922385321
Quadratic minimum step length (  0.363475480782) accepted
    Initial Ne1:      12.00000000
      Final Ne1:      12.00000000

=================== Penalty functional idempotency correction ==================
 RMS occupancy error at iteration   1:  0.000003 (step -0.5000 Ne1=     12.0000)
            Final RMS occupancy error   :  0.000000 (Ne1=     12.0000)
               Final occupancy bounds   : [  0.0000,  1.0000]
================================================================================

 1    -22.52089168310396 0.00000000000 0.00106826061 0.3635  0.000   12.00000000
      ideal mu1:      -0.470863733151
             Q0:     -22.520922230724
             G0:      -0.000009191812
   RMS gradient:       0.000303888879
     Trial step:       0.488083915790
             Q1:     -22.520925283705
 Quadratic coef:       0.000001433394
 Linear coef   :      -0.000004486376
           Qmin:     -22.520925741197
Quadratic minimum step length (  0.763826195635) accepted
    Initial Ne1:      12.00000000
      Final Ne1:      12.00000000

=================== Penalty functional idempotency correction ==================
 RMS occupancy error at iteration   1:  0.000001 (step -0.5000 Ne1=     12.0000)
            Final RMS occupancy error   :  0.000000 (Ne1=     12.0000)
               Final occupancy bounds   : [  0.0000,  1.0000]
================================================================================

 2    -22.52092223072374 0.00144705951 0.00024925762 0.7638  0.055   12.00000000
      ideal mu1:      -0.470891325182
 3    -22.52092574122441 0.00078412909 0.00012079806 0.0000  0.000   12.00000000
Finished density kernel iterations (   3)

           ........................................................
           | *** NGWF optimisation not converged ***              |
           | RMS NGWF gradient =    0.00033453388897              |
           | Criteria not satisfied:                              |
           | -> RMS NGWF gradient higher than set threshold.      |
           ========================================================

================================================================================
           ---------------- ENERGY COMPONENTS (Eh) ----------------
           | Kinetic                    :       14.57923375666943 |
           | Pseudopotential (local)    :      -75.39713741834331 |
           | Pseudopotential (non-local):        3.13672197612584 |
           | Hartree                    :       29.61197312226693 |
           | Exchange-correlation       :       -5.49608676575452 |
           | Ewald                      :       11.04436958781122 |
           | Total                      :      -22.52092574122440 |
           --------------------------------------------------------
           ------ LOCAL ENERGY COMPONENTS FROM MATRIX TRACES ------
           | Pseudopotential (local)    :      -75.39713741834100 |
           | Hartree                    :       29.61197312226626 |
           --------------------------------------------------------
           Integrated density           :       11.99999999999952
           Integrated density tr(KS)    :       12.00000000000000
================================================================================


------------------------------- NGWF line search -------------------------------
============ Calculation of NGWF S^-1 using Hotelling algorithm ================ 
         Iteration  |  Frobenius norm and Maximum abs value    (of I-S*S_n^-1)   
               1       0.13518691E-01     0.51090623E-02
               2       0.69890625E-04     0.39796005E-04
               3       0.31421320E-08     0.19315602E-08
               4       0.16883668E-14     0.88817842E-15
================================================================================
============ Calculation of NGWF S^-1 using Hotelling algorithm ================ 
         Iteration  |  Frobenius norm and Maximum abs value    (of I-S*S_n^-1)   
               1       0.25470385E-02     0.96599674E-03
               2       0.24218839E-05     0.14083918E-05
               3       0.37074449E-11     0.23314684E-11
               4       0.15496633E-14     0.44408921E-15
================================================================================
RMS gradient                =       0.00033453388897
Trial step length           =               0.477191
Gradient along search dir.  =         -0.00495664680
Functional at step 0        =     -22.52092574122441
Functional at step 1        =     -22.52230639103379
Functional predicted        =     -22.52234621354644
Selected quadratic step     =               0.573159
Conjugate gradients coeff.  =               0.300100
--------------------------- NGWF line search finished --------------------------
                                               

################################################################################
########################### NGWF CG iteration  006 #############################
################################################################################
****** Reciprocal space K.E. preconditioning with k_zero =  3.0000 a0^-1 *******
   Initial electron number for spin 1:      12.00294876
     Final electron number for spin 1:      12.00000000

=================== Penalty functional idempotency correction ==================
 RMS occupancy error at iteration   1:  0.000455 (step -0.4992 Ne1=     12.0000)
 RMS occupancy error at iteration   2:  0.000001 (step -0.5000 Ne1=     12.0000)
            Final RMS occupancy error   :  0.000000 (Ne1=     12.0000)
               Final occupancy bounds   : [  0.0000,  1.0000]
================================================================================

................................................................................
<<<<<<<<<<<<<< LNV (Original version) density kernel optimisation >>>>>>>>>>>>>>
~~~~~~~~~~~~~~~~~~~~~~~~~~~~~~~~~~~~~~~~~~~~~~~~~~~~~~~~~~~~~~~~~~~~~~~~~~~~~~~~
iter|       energy      |  rms DeltaK |  commutator |LScoef|CGcoef|      Ne    |
      ideal mu1:      -0.472930228586
             Q0:     -22.522347611907
             G0:      -0.000213969673
   RMS gradient:       0.001462770225
     Trial step:       0.610582738495
             Q1:     -22.522369771123
 Quadratic coef:       0.000108486973
 Linear coef   :      -0.000130646189
           Qmin:     -22.522386944802
Quadratic minimum step length (  0.367649248486) accepted
    Initial Ne1:      12.00000000
      Final Ne1:      12.00000000

=================== Penalty functional idempotency correction ==================
 RMS occupancy error at iteration   1:  0.000004 (step -0.5000 Ne1=     12.0000)
            Final RMS occupancy error   :  0.000000 (Ne1=     12.0000)
               Final occupancy bounds   : [  0.0000,  1.0000]
================================================================================

 1    -22.52234761190686 0.00000000000 0.00124409537 0.3676  0.000   12.00000000
      ideal mu1:      -0.471782473086
             Q0:     -22.522386917005
             G0:      -0.000010630732
   RMS gradient:       0.000326075678
     Trial step:       0.473793504542
             Q1:     -22.522389826376
 Quadratic coef:       0.000002127401
 Linear coef   :      -0.000005036772
           Qmin:     -22.522389898234
Quadratic minimum step length (  0.560869839857) accepted
    Initial Ne1:      12.00000000
      Final Ne1:      12.00000000

=================== Penalty functional idempotency correction ==================
 RMS occupancy error at iteration   1:  0.000001 (step -0.5000 Ne1=     12.0000)
            Final RMS occupancy error   :  0.000000 (Ne1=     12.0000)
               Final occupancy bounds   : [  0.0000,  1.0000]
================================================================================

 2    -22.52238691700517 0.00163148737 0.00026818401 0.5609  0.050   12.00000000
      ideal mu1:      -0.471504145008
 3    -22.52238989830686 0.00056287294 0.00004230735 0.0000  0.000   12.00000000
Finished density kernel iterations (   3)

           ........................................................
           | *** NGWF optimisation not converged ***              |
           | RMS NGWF gradient =    0.00019860692462              |
           | Criteria not satisfied:                              |
           | -> RMS NGWF gradient higher than set threshold.      |
           ========================================================

------------------------------- NGWF line search -------------------------------
============ Calculation of NGWF S^-1 using Hotelling algorithm ================ 
         Iteration  |  Frobenius norm and Maximum abs value    (of I-S*S_n^-1)   
               1       0.13253921E-01     0.44565205E-02
               2       0.61716505E-04     0.32378511E-04
               3       0.23434032E-08     0.13817645E-08
               4       0.11865327E-14     0.44408921E-15
================================================================================
============ Calculation of NGWF S^-1 using Hotelling algorithm ================ 
         Iteration  |  Frobenius norm and Maximum abs value    (of I-S*S_n^-1)   
               1       0.63667649E-04     0.21344426E-04
               2       0.14257688E-08     0.74029016E-09
               3       0.13004172E-14     0.66613381E-15
================================================================================
RMS gradient                =       0.00019860692462
Trial step length           =               0.522978
Gradient along search dir.  =         -0.00178977097
Functional at step 0        =     -22.52238989830686
Functional at step 1        =     -22.52285555197307
Functional predicted        =     -22.52285556373472
Selected quadratic step     =               0.520363
Conjugate gradients coeff.  =               0.352459
--------------------------- NGWF line search finished --------------------------
                                               

################################################################################
########################### NGWF CG iteration  007 #############################
################################################################################
****** Reciprocal space K.E. preconditioning with k_zero =  3.0000 a0^-1 *******
   Initial electron number for spin 1:      12.00227941
     Final electron number for spin 1:      12.00000000

=================== Penalty functional idempotency correction ==================
 RMS occupancy error at iteration   1:  0.000337 (step -0.4994 Ne1=     12.0000)
 RMS occupancy error at iteration   2:  0.000000 (step -0.5000 Ne1=     12.0000)
            Final RMS occupancy error   :  0.000000 (Ne1=     12.0000)
               Final occupancy bounds   : [  0.0000,  1.0000]
================================================================================

................................................................................
<<<<<<<<<<<<<< LNV (Original version) density kernel optimisation >>>>>>>>>>>>>>
~~~~~~~~~~~~~~~~~~~~~~~~~~~~~~~~~~~~~~~~~~~~~~~~~~~~~~~~~~~~~~~~~~~~~~~~~~~~~~~~
iter|       energy      |  rms DeltaK |  commutator |LScoef|CGcoef|      Ne    |
      ideal mu1:      -0.474084611650
             Q0:     -22.522855704837
             G0:      -0.000106160152
   RMS gradient:       0.001030340487
     Trial step:       0.515496350150
             Q1:     -22.522874095072
 Quadratic coef:       0.000036334936
 Linear coef   :      -0.000054725171
           Qmin:     -22.522876310656
Quadratic minimum step length (  0.388202501711) accepted
    Initial Ne1:      12.00000000
      Final Ne1:      12.00000000

=================== Penalty functional idempotency correction ==================
 RMS occupancy error at iteration   1:  0.000002 (step -0.5000 Ne1=     12.0000)
            Final RMS occupancy error   :  0.000000 (Ne1=     12.0000)
               Final occupancy bounds   : [  0.0000,  1.0000]
================================================================================

 1    -22.52285570483729 0.00000000000 0.00089776092 0.3882  0.000   12.00000000
      ideal mu1:      -0.473094249889
             Q0:     -22.522876304964
             G0:      -0.000007696362
   RMS gradient:       0.000277402354
     Trial step:       0.447344355895
             Q1:     -22.522878389521
 Quadratic coef:       0.000001358367
 Linear coef   :      -0.000003442924
           Qmin:     -22.522878486577
Quadratic minimum step length (  0.566920770873) accepted
    Initial Ne1:      12.00000000
      Final Ne1:      12.00000000

=================== Penalty functional idempotency correction ==================
 RMS occupancy error at iteration   1:  0.000001 (step -0.5000 Ne1=     12.0000)
            Final RMS occupancy error   :  0.000000 (Ne1=     12.0000)
               Final occupancy bounds   : [  0.0000,  1.0000]
================================================================================

 2    -22.52287630496353 0.00117974654 0.00023851563 0.5669  0.072   12.00000000
      ideal mu1:      -0.472824636833
 3    -22.52287848661955 0.00044784864 0.00006024578 0.0000  0.000   12.00000000
Finished density kernel iterations (   3)

           ........................................................
           | *** NGWF optimisation not converged ***              |
           | RMS NGWF gradient =    0.00012343937342              |
           | Criteria not satisfied:                              |
           | -> RMS NGWF gradient higher than set threshold.      |
           ========================================================

------------------------------- NGWF line search -------------------------------
============ Calculation of NGWF S^-1 using Hotelling algorithm ================ 
         Iteration  |  Frobenius norm and Maximum abs value    (of I-S*S_n^-1)   
               1       0.68103107E-02     0.24222265E-02
               2       0.15544338E-04     0.61814410E-05
               3       0.14114583E-09     0.63833272E-10
               4       0.17525986E-14     0.88817842E-15
================================================================================
============ Calculation of NGWF S^-1 using Hotelling algorithm ================ 
         Iteration  |  Frobenius norm and Maximum abs value    (of I-S*S_n^-1)   
               1       0.49258760E-03     0.17086077E-03
               2       0.81939958E-07     0.32057981E-07
               3       0.39059738E-14     0.14432899E-14
================================================================================
RMS gradient                =       0.00012343937342
Trial step length           =               0.521669
Gradient along search dir.  =         -0.00067054693
Functional at step 0        =     -22.52287848661955
Functional at step 1        =     -22.52306534754542
Functional predicted        =     -22.52306622528017
Selected quadratic step     =               0.559957
Conjugate gradients coeff.  =               0.000000
--------------------------- NGWF line search finished --------------------------
                                               

################################################################################
########################### NGWF CG iteration  008 #############################
################################################################################
****** Reciprocal space K.E. preconditioning with k_zero =  3.0000 a0^-1 *******
   Initial electron number for spin 1:      12.00288361
     Final electron number for spin 1:      12.00000000

=================== Penalty functional idempotency correction ==================
 RMS occupancy error at iteration   1:  0.000273 (step -0.4997 Ne1=     12.0000)
 RMS occupancy error at iteration   2:  0.000000 (step -0.5000 Ne1=     12.0000)
            Final RMS occupancy error   :  0.000000 (Ne1=     12.0000)
               Final occupancy bounds   : [  0.0000,  1.0000]
================================================================================

................................................................................
<<<<<<<<<<<<<< LNV (Original version) density kernel optimisation >>>>>>>>>>>>>>
~~~~~~~~~~~~~~~~~~~~~~~~~~~~~~~~~~~~~~~~~~~~~~~~~~~~~~~~~~~~~~~~~~~~~~~~~~~~~~~~
iter|       energy      |  rms DeltaK |  commutator |LScoef|CGcoef|      Ne    |
      ideal mu1:      -0.474099128146
             Q0:     -22.523065873847
             G0:      -0.000014427216
   RMS gradient:       0.000379831758
     Trial step:       0.503595876760
             Q1:     -22.523068908667
 Quadratic coef:       0.000004230667
 Linear coef   :      -0.000007265487
           Qmin:     -22.523068993172
Quadratic minimum step length (  0.432422233113) accepted
    Initial Ne1:      12.00000000
      Final Ne1:      12.00000000

=================== Penalty functional idempotency correction ==================
 RMS occupancy error at iteration   1:  0.000000 (step -0.5000 Ne1=     12.0000)
            Final RMS occupancy error   :  0.000000 (Ne1=     12.0000)
               Final occupancy bounds   : [  0.0000,  1.0000]
================================================================================

 1    -22.52306587384742 0.00000000000 0.00032000932 0.4324  0.000   12.00000000
      ideal mu1:      -0.473632742831
             Q0:     -22.523068992950
             G0:      -0.000001698537
   RMS gradient:       0.000130318337
     Trial step:       0.466654104895
             Q1:     -22.523069478753
 Quadratic coef:       0.000000306826
 Linear coef   :      -0.000000792629
           Qmin:     -22.523069504853
Quadratic minimum step length (  0.602757650089) accepted
    Initial Ne1:      12.00000000
      Final Ne1:      12.00000000

=================== Penalty functional idempotency correction ==================
 RMS occupancy error at iteration   1:  0.000000 (step -0.5000 Ne1=     12.0000)
            Final RMS occupancy error   :  0.000000 (Ne1=     12.0000)
               Final occupancy bounds   : [  0.0000,  1.0000]
================================================================================

 2    -22.52306899295018 0.00049137640 0.00010372770 0.6028  0.118   12.00000000
      ideal mu1:      -0.473516706421
 3    -22.52306950485587 0.00025152939 0.00004488524 0.0000  0.000   12.00000000
Finished density kernel iterations (   3)

           ........................................................
           | *** NGWF optimisation not converged ***              |
           | RMS NGWF gradient =    0.00006556618696              |
           | Criteria not satisfied:                              |
           | -> RMS NGWF gradient higher than set threshold.      |
           ========================================================

------------------------------- NGWF line search -------------------------------
============ Calculation of NGWF S^-1 using Hotelling algorithm ================ 
         Iteration  |  Frobenius norm and Maximum abs value    (of I-S*S_n^-1)   
               1       0.84705144E-02     0.26400358E-02
               2       0.25324774E-04     0.99711753E-05
               3       0.38616960E-09     0.17114810E-09
               4       0.13945219E-14     0.55511151E-15
================================================================================
============ Calculation of NGWF S^-1 using Hotelling algorithm ================ 
         Iteration  |  Frobenius norm and Maximum abs value    (of I-S*S_n^-1)   
               1       0.93286327E-04     0.28102730E-04
               2       0.31098680E-08     0.11994620E-08
               3       0.14250154E-14     0.44408921E-15
================================================================================
RMS gradient                =       0.00006556618696
Trial step length           =               0.540474
Gradient along search dir.  =         -0.00019235231
Functional at step 0        =     -22.52306950485587
Functional at step 1        =     -22.52312089916755
Functional predicted        =     -22.52312090570900
Selected quadratic step     =               0.534445
Conjugate gradients coeff.  =               0.282132
--------------------------- NGWF line search finished --------------------------
                                               

################################################################################
########################### NGWF CG iteration  009 #############################
################################################################################
****** Reciprocal space K.E. preconditioning with k_zero =  3.0000 a0^-1 *******
   Initial electron number for spin 1:      12.00213837
     Final electron number for spin 1:      12.00000000

=================== Penalty functional idempotency correction ==================
 RMS occupancy error at iteration   1:  0.000259 (step -0.4996 Ne1=     12.0000)
 RMS occupancy error at iteration   2:  0.000000 (step -0.5000 Ne1=     12.0000)
            Final RMS occupancy error   :  0.000000 (Ne1=     12.0000)
               Final occupancy bounds   : [  0.0000,  1.0000]
================================================================================

................................................................................
<<<<<<<<<<<<<< LNV (Original version) density kernel optimisation >>>>>>>>>>>>>>
[...]
           | Pseudopotential (non-local):        3.14118263392381 |
           | Hartree                    :       29.56849941398203 |
           | Exchange-correlation       :       -5.48959829600961 |
           | Ewald                      :       11.04436958781122 |
           | Total                      :      -22.52313069938639 |
           --------------------------------------------------------
           ------ LOCAL ENERGY COMPONENTS FROM MATRIX TRACES ------
           | Pseudopotential (local)    :      -75.35874770460406 |
           | Hartree                    :       29.56849941398050 |
           --------------------------------------------------------
           Integrated density           :       11.99999999999977
           Integrated density tr(KS)    :       12.00000000000000
================================================================================


------------------------------- NGWF line search -------------------------------
WARNING: slope along search direction is positive:    0.855826E-05
         Resetting conjugate gradients!
WARNING: slope along search direction is still positive.
         Reversing search direction!!
============ Calculation of NGWF S^-1 using Hotelling algorithm ================ 
         Iteration  |  Frobenius norm and Maximum abs value    (of I-S*S_n^-1)   
               1       0.35185290E-02     0.10201854E-02
               2       0.46363361E-05     0.16835712E-05
               3       0.14849456E-10     0.56935567E-11
               4       0.13059023E-14     0.77715612E-15
================================================================================
============ Calculation of NGWF S^-1 using Hotelling algorithm ================ 
         Iteration  |  Frobenius norm and Maximum abs value    (of I-S*S_n^-1)   
               1       0.24942869E-02     0.72110606E-03
               2       0.23269334E-05     0.84436118E-06
               3       0.37502564E-11     0.14351853E-11
               4       0.17191152E-14     0.11102230E-14
================================================================================
RMS gradient                =       0.00001261109891
Trial step length           =               0.324490
Gradient along search dir.  =         -0.00000699887
Functional at step 0        =     -22.52313069938640
Functional at step 1        =     -22.52312907993279
Functional predicted        =     -22.52313103081564
Selected quadratic step     =               0.094709
Conjugate gradients coeff.  =              -0.259266
--------------------------- NGWF line search finished --------------------------
                                               

################################################################################
########################### NGWF CG iteration  011 #############################
################################################################################
****** Reciprocal space K.E. preconditioning with k_zero =  3.0000 a0^-1 *******
   Initial electron number for spin 1:      11.99978524
     Final electron number for spin 1:      12.00000000

=================== Penalty functional idempotency correction ==================
 RMS occupancy error at iteration   1:  0.000034 (step -0.5001 Ne1=     12.0000)
            Final RMS occupancy error   :  0.000000 (Ne1=     12.0000)
               Final occupancy bounds   : [  0.0000,  1.0000]
================================================================================

................................................................................
<<<<<<<<<<<<<< LNV (Original version) density kernel optimisation >>>>>>>>>>>>>>
~~~~~~~~~~~~~~~~~~~~~~~~~~~~~~~~~~~~~~~~~~~~~~~~~~~~~~~~~~~~~~~~~~~~~~~~~~~~~~~~
iter|       energy      |  rms DeltaK |  commutator |LScoef|CGcoef|      Ne    |
      ideal mu1:      -0.474396617948
             Q0:     -22.523131029786
             G0:      -0.000000462294
   RMS gradient:       0.000067992174
     Trial step:       0.596812860666
             Q1:     -22.523131132498
 Quadratic coef:       0.000000173191
 Linear coef   :      -0.000000275903
           Qmin:     -22.523131139668
Quadratic minimum step length (  0.475377485079) accepted
    Initial Ne1:      11.99999998
      Final Ne1:      12.00000000

=================== Penalty functional idempotency correction ==================
 RMS occupancy error at iteration   1:  0.000000 (step -0.5000 Ne1=     12.0000)
            Final RMS occupancy error   :  0.000000 (Ne1=     12.0000)
               Final occupancy bounds   : [  0.0000,  1.0000]
================================================================================

 1    -22.52313102978590 0.00000000000 0.00005958829 0.4754  0.000   12.00000000
      ideal mu1:      -0.474487988340
             Q0:     -22.523131139669
             G0:      -0.000000043170
   RMS gradient:       0.000020777686
     Trial step:       0.532645657793
             Q1:     -22.523131148772
 Quadratic coef:       0.000000013891
 Linear coef   :      -0.000000022995
           Qmin:     -22.523131149185
Quadratic minimum step length (  0.440850294765) accepted
    Initial Ne1:      12.00000000
      Final Ne1:      12.00000000

=================== Penalty functional idempotency correction ==================
 RMS occupancy error at iteration   1:  0.000000 (step -0.5000 Ne1=     12.0000)
            Final RMS occupancy error   :  0.000000 (Ne1=     12.0000)
               Final occupancy bounds   : [  0.0000,  1.0000]
================================================================================

 2    -22.52313113966917 0.00008876749 0.00001841330 0.4409  0.093   12.00000000
      ideal mu1:      -0.474496722270
 3    -22.52313114918525 0.00002419279 0.00000322412 0.0000  0.000   12.00000000
Finished density kernel iterations (   3)

           ........................................................
           | *** NGWF optimisation not converged ***              |
           | RMS NGWF gradient =    0.00000540831445              |
           | Criteria not satisfied:                              |
           | -> RMS NGWF gradient higher than set threshold.      |
           ========================================================

------------------------------- NGWF line search -------------------------------
============ Calculation of NGWF S^-1 using Hotelling algorithm ================ 
         Iteration  |  Frobenius norm and Maximum abs value    (of I-S*S_n^-1)   
               1       0.22446178E-02     0.65868166E-03
               2       0.18932862E-05     0.68998947E-06
               3       0.24125302E-11     0.93780539E-12
================================================================================
============ Calculation of NGWF S^-1 using Hotelling algorithm ================ 
         Iteration  |  Frobenius norm and Maximum abs value    (of I-S*S_n^-1)   
               1       0.21452473E-02     0.62948323E-03
               2       0.17309686E-05     0.63107993E-06
               3       0.20174416E-11     0.78448359E-12
================================================================================
============ Calculation of NGWF S^-1 using Hotelling algorithm ================ 
         Iteration  |  Frobenius norm and Maximum abs value    (of I-S*S_n^-1)   
               1       0.67067491E-07     0.19548829E-07
               2       0.24515916E-14     0.11102230E-14
================================================================================
RMS gradient                =       0.00000540831445
Trial step length           =               0.175306
Gradient along search dir.  =         -0.00000093338
Functional at step 0        =     -22.52313114918525
Functional at step 1        =     -22.52312947656333
Rejected quadratic step     =               0.007811
Functional at new step 1    =     -22.52313115282799
Functional predicted        =     -22.52313115282799
Selected quadratic step     =               0.007805
Conjugate gradients coeff.  =              -0.183915
--------------------------- NGWF line search finished --------------------------
                                               

################################################################################
########################### NGWF CG iteration  012 #############################
################################################################################
****** Reciprocal space K.E. preconditioning with k_zero =  3.0000 a0^-1 *******
   Initial electron number for spin 1:      12.00001999
     Final electron number for spin 1:      12.00000000

=================== Penalty functional idempotency correction ==================
 RMS occupancy error at iteration   1:  0.000003 (step -0.5000 Ne1=     12.0000)
            Final RMS occupancy error   :  0.000000 (Ne1=     12.0000)
               Final occupancy bounds   : [  0.0000,  1.0000]
================================================================================

................................................................................
<<<<<<<<<<<<<< LNV (Original version) density kernel optimisation >>>>>>>>>>>>>>
~~~~~~~~~~~~~~~~~~~~~~~~~~~~~~~~~~~~~~~~~~~~~~~~~~~~~~~~~~~~~~~~~~~~~~~~~~~~~~~~
iter|       energy      |  rms DeltaK |  commutator |LScoef|CGcoef|      Ne    |
      ideal mu1:      -0.474509561987
             Q0:     -22.523131152821
             G0:      -0.000000004753
   RMS gradient:       0.000006894363
     Trial step:       0.484579193986
             Q1:     -22.523131154146
 Quadratic coef:       0.000000000979
 Linear coef   :      -0.000000002303
           Qmin:     -22.523131154176
Quadratic minimum step length (  0.570002259806) accepted
    Initial Ne1:      12.00000000
      Final Ne1:      12.00000000

=================== Penalty functional idempotency correction ==================
 RMS occupancy error at iteration   1:  0.000000 (step -0.5000 Ne1=     12.0000)
            Final RMS occupancy error   :  0.000000 (Ne1=     12.0000)
               Final occupancy bounds   : [  0.0000,  1.0000]
================================================================================

 1    -22.52313115282130 0.00000000000 0.00000555557 0.5700  0.000   12.00000000
      ideal mu1:      -0.474500395920
             Q0:     -22.523131154176
             G0:      -0.000000001148
   RMS gradient:       0.000003387444
     Trial step:       0.525558023083
             Q1:     -22.523131154596
 Quadratic coef:       0.000000000183
 Linear coef   :      -0.000000000603
           Qmin:     -22.523131154673
Quadratic minimum step length (  0.866489883473) accepted
    Initial Ne1:      12.00000000
      Final Ne1:      12.00000000

=================== Penalty functional idempotency correction ==================
 RMS occupancy error at iteration   1:  0.000000 (step -0.5000 Ne1=     12.0000)
            Final RMS occupancy error   :  0.000000 (Ne1=     12.0000)
               Final occupancy bounds   : [  0.0000,  1.0000]
================================================================================

 2    -22.52313115417594 0.00001137469 0.00000277805 0.8665  0.241   12.00000000
      ideal mu1:      -0.474500101474
 3    -22.52313115467126 0.00000896684 0.00000271132 0.0000  0.000   12.00000000
Finished density kernel iterations (   3)

           ........................................................
           | *** NGWF optimisation not converged ***              |
           | RMS NGWF gradient =    0.00000223111969              |
           | Criteria not satisfied:                              |
           | -> RMS NGWF gradient higher than set threshold.      |
           ========================================================

------------------------------- NGWF line search -------------------------------
============ Calculation of NGWF S^-1 using Hotelling algorithm ================ 
         Iteration  |  Frobenius norm and Maximum abs value    (of I-S*S_n^-1)   
               1       0.48202697E-03     0.14074274E-03
               2       0.87274282E-07     0.31769560E-07
               3       0.61123796E-14     0.24424907E-14
================================================================================
============ Calculation of NGWF S^-1 using Hotelling algorithm ================ 
         Iteration  |  Frobenius norm and Maximum abs value    (of I-S*S_n^-1)   
               1       0.45585943E-03     0.13310296E-03
               2       0.78071422E-07     0.28421829E-07
               3       0.44906820E-14     0.17763568E-14
================================================================================
RMS gradient                =       0.00000223111969
Trial step length           =               0.036991
Gradient along search dir.  =         -0.00000024863
Functional at step 0        =     -22.52313115467126
Functional at step 1        =     -22.52313107924142
Functional predicted        =     -22.52313115492115
Selected quadratic step     =               0.002010
Conjugate gradients coeff.  =               0.170185
--------------------------- NGWF line search finished --------------------------
                                               

################################################################################
########################### NGWF CG iteration  013 #############################
################################################################################
****** Reciprocal space K.E. preconditioning with k_zero =  3.0000 a0^-1 *******
   Initial electron number for spin 1:      12.00000521
     Final electron number for spin 1:      12.00000000

=================== Penalty functional idempotency correction ==================
 RMS occupancy error at iteration   1:  0.000001 (step -0.5000 Ne1=     12.0000)
            Final RMS occupancy error   :  0.000000 (Ne1=     12.0000)
               Final occupancy bounds   : [  0.0000,  1.0000]
================================================================================

................................................................................
<<<<<<<<<<<<<< LNV (Original version) density kernel optimisation >>>>>>>>>>>>>>
~~~~~~~~~~~~~~~~~~~~~~~~~~~~~~~~~~~~~~~~~~~~~~~~~~~~~~~~~~~~~~~~~~~~~~~~~~~~~~~~
iter|       energy      |  rms DeltaK |  commutator |LScoef|CGcoef|      Ne    |
      ideal mu1:      -0.474503455474
             Q0:     -22.523131154921
             G0:      -0.000000001217
   RMS gradient:       0.000003489020
     Trial step:       0.674826429669
             Q1:     -22.523131155130
 Quadratic coef:       0.000000000612
 Linear coef   :      -0.000000000821
           Qmin:     -22.523131155197
Quadratic minimum step length (  0.452827622059) accepted
    Initial Ne1:      12.00000000
      Final Ne1:      12.00000000

=================== Penalty functional idempotency correction ==================
 RMS occupancy error at iteration   1:  0.000000 (step -0.5000 Ne1=     12.0000)
            Final RMS occupancy error   :  0.000000 (Ne1=     12.0000)
               Final occupancy bounds   : [  0.0000,  1.0000]
================================================================================

 1    -22.52313115492088 0.00000000000 0.00000301315 0.4528  0.000   12.00000000
      ideal mu1:      -0.474502277054
             Q0:     -22.523131155196
             G0:      -0.000000000372
   RMS gradient:       0.000001928905
     Trial step:       0.552792951700
             Q1:     -22.523131155377
 Quadratic coef:       0.000000000025
 Linear coef   :      -0.000000000206
           Qmin:     -22.523131155611
Quadratic minimum step length (  2.229862705859) accepted
    Initial Ne1:      12.00000000
      Final Ne1:      12.00000000

=================== Penalty functional idempotency correction ==================
 RMS occupancy error at iteration   1:  0.000000 (step -0.5000 Ne1=     12.0000)
            Final RMS occupancy error   :  0.000000 (Ne1=     12.0000)
               Final occupancy bounds   : [  0.0000,  1.0000]
================================================================================

 2    -22.52313115519637 0.00000436867 0.00000160291 2.2299  0.306   12.00000000
      ideal mu1:      -0.474504158825
 3    -22.52313115561737 0.00001280557 0.00000157828 0.0000  0.000   12.00000000
Finished density kernel iterations (   3)

           ........................................................
           | *** NGWF optimisation converged ***                  |
           | RMS NGWF gradient =    0.00000143320807              |
           | Criteria satisfied:                                  |
           | -> RMS NGWF gradient lower than set threshold.       |
           ========================================================

================================================================================
           ---------------- ENERGY COMPONENTS (Eh) ----------------
           | Kinetic                    :       14.57129260074879 |
           | Pseudopotential (local)    :      -75.35892219231792 |
           | Pseudopotential (non-local):        3.14097700743399 |
           | Hartree                    :       29.56881562785128 |
           | Exchange-correlation       :       -5.48966378714473 |
           | Ewald                      :       11.04436958781122 |
           | Total                      :      -22.52313115561737 |
           --------------------------------------------------------
           ------ LOCAL ENERGY COMPONENTS FROM MATRIX TRACES ------
           | Pseudopotential (local)    :      -75.35892219231442 |
           | Hartree                    :       29.56881562784962 |
           --------------------------------------------------------
           Integrated density           :       11.99999999999961
           Integrated density tr(KS)    :       12.00000000000000
================================================================================


                    <<<<< CALCULATION SUMMARY >>>>>
|ITER|    RMS GRADIENT   |     TOTAL ENERGY    |   step   |     Epredicted      
   1     0.01019923943213    -21.05435494222086   0.602935    -22.43441463540474
   2     0.00410055150240    -22.35097350905669   0.419266    -22.49186981645016
   3     0.00136728261547    -22.49503282049465   0.502465    -22.51619908254171
   4     0.00061067117302    -22.51633733120021   0.552930    -22.52090094097661
   5     0.00033453388897    -22.52092574122441   0.573159    -22.52234621354644
   6     0.00019860692462    -22.52238989830686   0.520363    -22.52285556373472
   7     0.00012343937342    -22.52287848661955   0.559957    -22.52306622528017
   8     0.00006556618696    -22.52306950485587   0.534445    -22.52312090570900
   9     0.00002476740673    -22.52312705215763   0.195913    -22.52313001777732
  10     0.00001261109891    -22.52313069938640   0.094709    -22.52313103081564
  11     0.00000540831445    -22.52313114918525   0.007805    -22.52313115282799
  12     0.00000223111969    -22.52313115467126   0.002010    -22.52313115492115
  13     0.00000143320807    -22.52313115561737  <-- CG                         
 
<QC>        [NGWF iterations]:       13
<QC>           [total_energy]:      -22.52313116
<QC>                     [F0]:      -22.52313115
<QC>                     [F1]:      -22.52313108
<QC>                     [F2]:        0.00000000
<QC>   [predicted_functional]:      -22.52313115
<QC>           [rms_gradient]:        0.000001433208
<QC>                 [G_init]:       -0.000000248635
<QC>        [quadratic_coeff]:        0.002010
<QC>            [cubic_coeff]:        0.000000
<QC>               [cg_coeff]:        0.170185
<QC>           [trial_length]:        0.036991

------------------------------ TIMING INFORMATION ------------------------------
TOTAL TIME:     187.292s on     4 node(s)

Job completed: 27-05-2011 23:54 (+0100)

Application 646061 resources: utime ~718s, stime ~32s
